<VTKFile type="PolyData" version="0.1" byte_order="LittleEndian">
  <PolyData>
    <Piece NumberOfPoints="16215" NumberOfVerts="0" NumberOfLines="0"
           NumberOfStrips="0" NumberOfPolys="140691">
      <Points>
        <DataArray type="Float32" NumberOfComponents="3" format="ascii">
          -2.95185 -0.946137 6.27002 -2.95268 -1.12857 6.30495 -2.95482 -0.72808 6.30859 -2.94131 -1.36292 6.27082 -2.94265 -0.428255 6.27053 -2.93757 -0.830308 6.3468 -2.93745 -1.18194 6.3329 -2.93537 -0.423531 6.31686 -2.93652 -1.47761 6.27864 -2.85499 -1.45774 6.25827 -2.93157 -1.42129 6.30546 -2.93619 -0.277385 6.28032 -2.91744 -0.25291 6.28953 -2.91525 -1.51781 6.28933 -2.79195 -0.66726 6.32166 -2.9121 -1.53996 6.2776 -2.90083 -0.23459 6.27378 -2.88892 -0.28079 6.26584 -2.82243 -0.262773 6.2717 -2.76238 -1.36295 6.30366 -2.78439 -1.5914 6.26373 -2.65044 -1.09248 6.31391 -2.7281 -0.838716 6.23555 -2.78062 -1.47613 6.29036 -2.78692 -0.432777 6.29621 -2.62624 -0.373147 6.23538 -2.61807 -1.63967 6.24314 -2.48247 -0.628712 6.20579 -2.49227 -0.424642 6.2349 -2.32489 3.96212 6.64442 -2.30938 4.22922 6.61924 -2.24765 4.09923 6.57993 -2.31252 4.2458 6.63489 -2.3024 3.61104 6.65513 -2.30094 4.06447 6.67894 -2.30303 4.1685 6.6608 -2.31031 3.84661 6.67297 -2.24967 4.25383 6.58616 -2.26427 -0.788736 6.25233 -2.28996 3.57439 6.66364 -2.28387 3.75465 6.68612 -2.2831 3.93964 6.68912 -2.23771 3.51552 6.62299 -2.1261 4.02492 6.57513 -2.07888 3.65551 6.56155 -2.00127 -0.645798 6.16811 -2.11914 -1.79979 6.19185 -2.06768 -1.06674 6.24202 -2.06856 3.45685 6.53541 -2.01481 4.20298 6.42907 -1.95468 -1.84683 6.14957 -1.96029 4.61789 3.33737 -1.96327 4.75817 3.33334 -1.9426 4.62767 3.30401 -1.93035 4.86072 3.30089 -1.93472 4.94109 3.31638 -1.9317 4.39971 3.32646 -2.06352 3.84437 6.55394 -1.90233 4.29645 3.32925 -1.90554 4.38433 3.29904 -1.88405 4.94621 3.37575 -1.86286 4.80491 3.43613 -1.90511 4.30136 3.30725 -1.88123 4.25797 3.32565 -1.84474 4.34274 3.35825 -1.86253 4.91944 3.37916 -1.80857 3.2901 6.35535 -1.66248 3.48423 6.30565 -1.84453 4.22445 3.37103 -1.9051 4.53317 3.39182 -1.80756 4.63831 3.50764 -1.7229 -1.50868 6.20085 -1.66695 3.7665 6.2081 -1.7182 4.91615 3.55759 -1.75819 4.34364 3.52672 -1.67557 4.12383 3.54411 -1.74319 -0.806666 6.114 -1.59449 4.32198 3.62075 -1.66839 -1.97901 6.12607 -1.51424 -0.827463 6.10745 -1.51225 3.88281 6.18405 -1.57068 3.27148 6.17948 -1.48347 4.87222 3.80183 -1.53009 -2.02687 6.13789 -1.26534 3.6493 6.04409 -1.51659 -2.02098 6.0902 -1.43275 -1.94824 6.15039 -1.34407 3.1967 6.10865 -1.42243 4.5486 3.92194 -1.43944 3.10352 6.11948 -1.34042 -2.12123 6.11221 -1.15891 2.97348 5.98048 -1.34061 -0.889188 6.11457 -1.3294 4.74829 4.01511 -1.29726 5.07696 6.16895 -1.23483 3.86709 5.91389 -1.48963 -1.15861 6.06928 -1.19301 4.57762 4.17116 -1.23838 4.05374 5.9256 -1.27257 5.33239 6.14234 -1.26825 -1.98255 5.89841 -0.339312 -1.39754 5.58291 -1.26358 -1.69659 5.90883 -1.25956 1.21307 5.43512 -1.2578 -2.08868 5.9268 -1.25161 1.26921 5.48276 -1.24902 5.37793 6.17024 -1.25566 -1.91315 6.03305 -1.26297 -2.12624 6.0546 -1.25473 1.21671 5.47979 -1.2534 -1.9326 5.87355 -1.2483 -1.37211 5.97148 -1.24394 -2.0554 5.89301 -1.24512 1.42483 5.45703 -1.24923 -2.08271 6.06544 -1.24937 1.71601 4.6844 -1.24786 -1.72819 5.86774 -1.08856 4.82513 6.06546 -1.26395 3.87396 3.996 -1.2389 1.5309 4.63623 -1.24498 1.20365 5.44659 -1.22907 -2.15282 5.99341 -1.23574 -2.20099 6.05277 -1.24103 1.42308 5.26024 -1.23552 1.27185 5.3812 -1.22583 1.27022 5.44993 -1.24928 -1.45359 5.8938 -1.22793 1.87363 4.70115 -1.23425 1.20372 5.19434 -1.20517 1.21438 5.51983 -1.23292 -1.00189 5.94217 -1.23262 1.68288 5.07007 -1.192 -2.11514 5.90913 -1.21627 -1.10243 6.0566 -1.24972 5.51204 6.1259 -1.22221 1.20359 5.47379 -1.22533 -0.940333 5.9677 -1.21902 -1.34019 5.87055 -1.17445 1.33119 5.52361 -1.20745 -1.03157 5.88934 -1.1394 -1.73926 5.83798 -1.19894 -0.953589 5.89365 -1.20737 -0.902907 5.91953 -1.07877 5.11939 6.08036 -1.21461 5.63615 6.14769 -1.14237 -2.02654 5.86318 -1.20633 -0.890981 5.96274 -1.19807 -0.890975 6.03827 -1.18866 1.53792 5.17357 -1.19687 5.83904 6.10164 -1.19443 1.94465 5.08916 -1.15784 1.34423 4.564 -1.19247 1.21258 4.75231 -1.18836 1.22229 4.59235 -1.17052 1.53483 4.9419 -1.18467 2.02845 4.72561 -1.18136 3.87739 4.12053 -1.12411 -1.08364 5.84698 -1.16599 -0.901845 5.89505 -1.17299 1.20376 4.59444 -1.16718 1.99796 5.41111 -1.14606 1.21452 4.54935 -1.12671 3.89623 4.1007 -1.12316 -2.06562 6.04947 -1.15322 -0.953281 5.86988 -1.093 2.05291 4.65625 -1.15654 1.38174 4.63415 -1.1499 1.81432 5.20717 -1.1346 1.89523 5.34953 -1.14367 1.53804 4.66603 -1.17568 2.04271 4.90225 -1.11832 1.2118 5.5522 -1.08046 1.59936 5.43607 -1.1326 1.66243 4.58177 -1.1235 5.48559 6.05234 -1.06609 3.26931 5.93588 -1.09482 -2.20051 5.9742 -1.12536 1.77065 4.79091 -1.11473 1.944 5.1392 -1.06536 1.89029 5.37879 -1.11586 1.97018 5.2781 -1.092 -0.927947 6.02413 -0.97726 5.5038 6.02222 -1.14516 2.11328 5.22584 -1.07027 -1.16187 6.01556 -1.10589 1.98765 5.33118 -1.10298 1.81535 4.6982 -1.0563 1.20789 5.52445 -1.08608 1.74284 5.52576 -1.08665 -2.26108 6.03485 -1.09829 1.89856 4.75982 -1.08368 2.27249 4.75769 -1.07522 3.7726 4.17493 -1.09136 2.01965 5.25984 -1.10073 1.92486 4.87515 -1.07691 2.32828 5.41279 -1.0885 -1.61465 6.04543 -1.0295 1.39236 5.57007 -1.00902 1.28286 5.51533 -0.943133 4.67156 5.97923 -1.08302 2.00505 5.0178 -1.07609 2.02847 5.33334 -1.07193 1.9219 4.70338 -1.0876 2.06044 5.4769 -1.0816 1.20915 4.51648 -1.06323 2.00113 4.74361 -1.05566 1.98239 5.36119 -1.04761 1.79699 4.66445 -1.04528 -0.976418 6.03847 -1.05238 2.05629 5.31083 -1.05133 -0.942218 5.84952 -0.992171 2.88133 5.84101 -1.04496 4.78686 4.29569 -1.04743 2.04055 4.82578 -1.03294 2.00415 4.70839 -1.01448 1.20535 5.56588 -0.837664 5.7261 5.9002 -1.02844 -0.970603 6.06584 -1.10606 1.84604 4.60022 -1.03509 2.04069 4.74047 -1.02739 2.05934 4.91884 -1.02611 3.53807 5.739 -0.978428 1.64377 5.57396 -0.98552 1.36507 4.49393 -1.01334 2.03949 5.35005 -1.00881 2.06477 5.30505 -1.01585 3.38066 5.70048 -1.01773 3.81209 5.69729 -0.97451 1.30155 4.54858 -1.07808 2.31142 5.09976 -1.01321 3.33039 5.75984 -0.981761 3.57788 5.42099 -1.00266 1.20655 4.49732 -1.03582 -1.02371 5.82728 -0.999133 -3.12096 4.73463 -1.01491 -2.24857 6.08923 -1.00519 2.03836 4.71504 -1.00007 3.90507 5.57388 -0.994484 3.79925 5.49331 -1.13748 -1.10405 6.12065 -0.987683 -5.24038 4.36697 -0.998652 -3.21508 5.81529 -0.998735 -2.28616 6.05908 -0.994572 1.24901 5.57873 -0.994594 2.06151 4.76163 -0.990988 -2.19374 4.50955 -0.961916 1.75852 5.4226 -0.994135 -4.40602 4.10052 -0.988461 1.96397 5.37773 -0.991828 -2.26007 5.78853 -0.991097 -2.14215 5.86274 -0.993844 -5.0124 5.6574 -0.857047 4.7693 5.91271 -0.987346 3.16106 5.77129 -0.988439 -5.25114 5.1856 -0.984365 4.07391 5.65324 -0.948951 1.20488 4.53081 -0.982525 2.93648 5.88554 -0.938427 4.61937 4.45151 -0.979478 -0.995557 6.07873 -0.980627 -2.4778 6.00372 -0.980156 -4.11319 5.94318 -0.978332 -3.14674 4.08404 -0.981533 -3.49384 5.97939 -0.975863 -2.18231 5.88917 -0.978243 -4.9487 5.84721 -0.975562 -5.45242 4.12484 -0.962258 2.04838 4.72277 -0.96368 1.66071 4.61889 -0.963138 -5.76507 5.24038 -0.968093 -2.06394 5.84964 -0.96604 -2.21113 5.94681 -0.934845 3.30036 5.29008 -0.973779 -5.45181 5.7377 -0.961992 1.99721 4.68966 -0.970051 -1.34228 4.9034 -0.95393 2.05262 5.32587 -0.960029 -5.44889 4.09712 -0.977375 -5.54823 5.44968 -0.96236 2.66655 5.43106 -0.968301 -4.71806 5.89838 -0.957921 -1.79774 5.81931 -0.957272 -1.04766 4.18798 -0.953465 -1.12051 6.0252 -0.953293 -2.21214 6.02503 -0.937254 -3.87461 5.99982 -0.889545 -1.87798 4.07924 -0.950502 -1.19244 4.08731 -0.954437 -5.27709 5.82218 -0.932854 -3.50828 6.02262 -1.00989 -2.07472 6.10893 -0.953993 -0.970669 5.76628 -0.943065 -2.12762 6.02419 -0.935347 2.05203 4.77711 -0.941678 2.66457 5.17207 -0.948699 -5.75732 4.11551 -0.931361 4.24738 5.29885 -0.948497 -5.96538 5.50853 -0.945243 -5.92134 4.63262 -0.943741 2.86722 5.41928 -0.9362 4.32424 5.60108 -0.936609 -1.44519 5.8113 -0.93452 -5.67228 5.75263 -0.91132 1.37742 5.58651 -0.931172 -2.71429 6.05094 -0.923574 4.02982 5.06072 -0.945174 -5.90907 5.65966 -0.934692 -1.97096 6.02417 -0.943289 3.04061 5.60798 -0.918526 -0.989127 6.01161 -0.924154 -0.483389 4.69788 -0.933004 3.68223 4.35966 -0.928272 3.09003 5.42031 -0.914417 -1.93675 6.0646 -0.886002 1.21102 5.53733 -0.875609 4.38149 4.38955 -0.822752 -3.23666 6.05403 -0.943813 2.53719 4.78368 -0.922829 -1.05847 5.80978 -0.916063 2.30069 5.55022 -0.922606 -0.560738 4.09443 -0.922208 4.68636 5.98783 -0.921664 2.01606 5.36536 -0.918024 -4.55129 5.94743 -0.916769 2.03502 4.71706 -0.918213 -0.994448 5.90196 -0.919124 1.29263 4.48661 -0.929485 -6.02706 4.26336 -0.906254 -6.11281 4.13837 -0.909467 -1.41197 6.02258 -0.901758 -0.631184 6.02796 -0.909616 -0.412725 5.97893 -0.908419 -0.336011 4.10984 -0.839827 -5.51525 5.81146 -0.90747 -1.01784 5.98006 -0.891653 2.7482 4.84336 -0.903899 -1.24974 6.02122 -0.921288 1.37953 4.56766 -0.900219 2.04171 5.25994 -0.907651 -1.05936 5.95928 -0.930276 3.66637 5.10021 -0.908029 -1.02416 6.01419 -0.873403 3.74028 4.46459 -0.903079 1.99241 4.69029 0.0614535 -1.65212 5.11395 -0.924638 -6.09868 5.63422 -0.902154 -1.17727 6.02019 -0.901597 -1.07677 6.01772 -0.909 2.47144 5.52206 -0.905048 -0.259362 5.68929 -0.751809 -3.73288 6.03133 -0.886721 2.03129 4.82685 -0.898458 2.84146 5.79742 -0.887326 3.05895 5.47339 -0.880377 -2.00374 6.07441 -0.894586 3.99521 5.70362 -0.897858 3.92188 5.69406 -0.890958 2.86577 5.76139 -0.890826 4.07833 5.73209 -0.885799 -2.32076 6.01572 -0.86696 4.62575 5.298 -0.914339 1.86128 4.48598 -0.890628 2.03341 5.33407 -0.879614 -0.414113 6.02481 -0.883742 1.44598 4.47443 -0.875144 2.01233 4.72753 -0.864286 1.51983 5.47391 -0.900153 1.27032 4.55162 -0.870878 -0.93937 6.06103 -0.876194 4.76616 4.60552 -0.883438 -6.27075 4.15406 -0.882798 4.51278 4.58021 -0.878975 3.30343 5.71409 -0.798663 1.79502 5.59229 -0.881429 3.99205 5.75597 -0.881677 5.08002 4.51055 -0.885175 4.27323 4.78183 -0.88126 4.01173 5.72962 -0.883592 4.45287 
[...]
      <PointData Scalars="T">
        <DataArray type="Float32" Name="T" format="ascii">
          11.3794 13.4296 8.88591 17.9715 7.13107 9.90064 15.3986 5.96208 35.3545 23.1569 24.649 4.51583 3.70673 54.0386 7.40319 76.0798 3.19199 4.28948 3.20483 18.2803 119.755 11.0818 8.53726 24.2188 5.2795 3.5247 95.8769 6.20988 2.6612 9.4009 3.72464 6.47912 3.09644 34.3913 6.15551 4.8369 10.5222 2.401 5.63564 49.0704 15.2602 7.76556 62.7863 5.275 13.3801 1.68461 193.204 7.47062 58.2645 2.90551 109.926 10.4789 6.65814 9.50369 5.15073 3.55619 21.2215 7.85481 46.0324 20.8771 3.04372 4.94718 40.1752 72.7845 16.5128 3.38344 89.984 11.4921 66.4184 11.8883 7.68628 10.435 9.30524 2.09704 15.7705 96.3939 3.22709 11.0009 117.113 1.57788 5.65546 24.4698 2.36803 100.092 7.57418 57.534 14.893 16.467 7.50227 72.7092 130.392 81.1711 1.87903 4.16109 24.4357 5.6239 6.33859 6.56773 2.34087 10.3705 12.8353 6.87837 7.68061 56.1958 34.2286 16.5505 9.96514 9.12039 38.4631 73.8182 11.9146 5.68751 20.1617 12.0809 13.1066 7.25358 8.26621 47.7318 126.659 10.7387 75.1736 65.1388 252.147 17.3047 31.1611 23.99 6.62861 4.97063 64.7721 76.8402 3.66309 10.4689 44.0629 3.43679 8.60646 113.866 2.55121 5.93627 10.587 3.52999 8.68831 2.9019 2.09156 14.1975 7.02995 16.5272 1.3625 1.77885 17.1962 4.97385 6.74832 14.3209 88.3596 82.6677 15.8737 4.06119 29.1414 3.77584 1.44434 110.893 4.96538 78.9758 16.2826 9.47473 2.16909 3.49741 17.9643 15.6787 11.0694 12.459 3.52747 86.8032 16.5696 7.3738 9.95767 10.5554 62.0354 10.3977 18.7309 12.1752 15.6529 1.45991 8.34842 3.6752 2.94483 11.64 8.56151 144.361 8.97827 143.826 9.24719 2.55374 97.2244 16.386 10.6695 4.01773 6.31198 15.0787 31.9675 69.1803 16.0975 12.6457 7.46965 4.95535 100.948 9.32056 10.034 10.0187 1.69086 12.0374 1.40106 92.8428 1.77085 8.16809 7.46077 131.589 3.07096 1.57259 4.78021 8.71274 21.667 7.84674 11.633 13.955 12.6994 13.0904 9.56849 5.53796 24.4287 4.43839 11.1417 6.88885 99.606 3.4202 9.50384 47.3143 8.68847 5.37357 6.00655 3.71134 13.2385 11.2633 106.563 40.506 11.9308 8.83464 14.2068 12.7228 12.5644 9.93343 13.1335 12.7981 15.7423 13.6931 11.4488 4.20073 109.8 31.9201 5.13957 2.10594 16.8246 14.6315 11.9565 13.0343 13.2969 16.4208 14.9627 9.49428 12.4728 13.345 9.33257 14.5599 10.7637 18.9143 8.55699 7.45741 22.3904 15.5619 13.1297 6.73986 17.0278 7.96518 8.57371 4.18481 11.5581 14.7819 10.3407 9.65199 25.2847 14.4734 11.0336 8.14705 9.17167 15.323 6.02864 19.3572 4.92784 16.2469 13.8876 9.26406 4.08052 7.2906 31.7198 17.7726 13.9524 5.72943 25.8591 8.21807 13.7808 6.85417 6.81284 150.821 11.6905 8.91208 125.095 7.55307 13.9196 4.02363 7.50098 7.93844 8.27239 47.2049 16.8544 19.9176 12.117 6.73291 23.0484 16.5089 22.0743 6.35639 8.03826 7.31319 7.50504 27.2356 6.62339 5.32245 6.33675 19.7109 22.5979 6.36365 6.76563 6.33862 17.0329 9.25251 6.20178 32.422 6.17353 6.10304 6.87927 7.38 14.1468 16.4242 75.0397 9.27793 9.63838 4.26447 4.50204 23.9138 4.42124 15.8413 4.53114 5.63454 17.87 7.48225 14.8527 13.9845 18.9483 33.8511 8.71136 6.24964 25.4199 7.49102 6.68173 11.308 4.3543 5.77705 5.78367 4.23918 4.84014 4.73226 9.71206 8.54762 24.5764 6.68733 78.908 110.544 22.2533 121.984 8.01918 9.50358 10.6728 15.1116 3.36673 8.52142 14.1542 2.7076 25.5219 11.2027 27.1333 5.43388 10.3251 10.7729 30.386 9.67202 6.85815 16.2844 9.14492 4.7398 14.8716 9.35923 9.4561 15.7784 6.96885 16.9866 26.9749 4.39536 6.92895 14.4334 3.29534 26.7482 2.68318 4.27812 152.901 7.34036 6.07161 43.2848 16.8232 3.65211 11.6329 10.755 2.34499 6.03538 8.84761 23.5548 4.10299 12.3647 21.0373 5.78534 17.5388 15.754 8.56445 10.3574 12.3052 5.55456 7.42379 6.1004 182.079 13.0248 8.58111 105.397 13.6398 17.6391 21.9352 20.2411 10.7283 12.3281 15.1343 5.77895 8.11737 7.10125 98.7165 86.5031 50.5948 14.7226 15.3384 6.05245 24.6214 42.6204 117.202 42.7357 15.7328 8.9199 23.3173 5.8971 15.2776 18.5769 7.68371 12.0038 4.10895 10.4412 9.1519 9.72313 10.602 8.68668 12.7454 6.1831 3.2405 7.73282 6.83715 8.93134 4.11605 7.76883 10.8016 16.6514 14.1516 6.73451 17.157 17.6235 73.9915 9.92364 13.9249 9.0885 16.1103 1.84283 16.5714 27.3925 2.23735 10.9871 7.70858 8.86878 27.9373 17.6835 16.2157 11.1081 11.0746 9.7585 8.40639 15.1693 24.8506 125.755 31.8173 9.9089 146.371 3.52058 8.8647 9.19877 8.62114 8.44587 13.0775 9.13075 15.5812 8.58661 9.31179 8.98378 109.882 10.4648 8.9159 12.6834 11.0733 4.7058 9.38857 79.3184 19.7386 56.5417 10.6132 7.64805 9.38166 10.2396 4.20415 9.54713 5.01525 7.43953 4.36141 7.40937 67.5684 47.0973 16.1987 6.86805 132.779 12.8831 7.64501 79.8189 111.359 6.60322 3.32625 18.1519 6.78185 7.54662 2.44546 7.23808 6.50212 8.53316 9.18083 5.69896 18.1268 11.3069 5.89805 4.29071 81.5972 7.14278 5.9347 8.21802 34.5267 1.89104 17.5454 17.1994 10.6683 12.2659 65.797 2.39772 9.65922 9.0199 12.9512 13.0042 19.215 14.4892 10.8774 13.341 5.54686 10.8653 4.56566 3.0738 15.0145 12.613 8.67005 7.54267 11.9227 123.005 4.6871 10.6454 9.91703 11.8697 7.80631 12.1669 2.21296 4.0115 9.00629 7.07495 7.93078 8.18015 12.9373 11.5046 5.76003 7.82277 8.39203 11.6171 8.11678 6.98363 156.34 3.84249 4.76606 11.3721 8.3828 9.16123 10.3814 4.45044 6.77391 8.83317 8.1941 8.95949 6.37649 12.7031 12.2945 58.2112 8.66318 2.04512 6.83706 70.7778 9.35959 9.70105 8.60664 10.2614 6.31652 6.26103 3.3508 11.912 11.3521 7.61979 7.98887 326.679 7.19408 3.85104 6.77848 4.46075 8.25008 28.9526 9.41616 6.05119 6.44495 181.683 7.56376 6.72014 3.26885 7.05761 10.3172 129.367 3.08237 180.173 5.9927 7.40991 5.98702 9.05881 6.18071 7.4062 43.5651 3.52463 8.08673 3.38623 6.77193 8.75731 7.97953 5.47456 11.5697 2.88681 4.93208 3.88033 6.67516 4.34277 14.7553 7.46055 2.39338 5.03903 1.13851 5.03143 3.02726 6.40197 8.69426 12.0605 1.8594 3.216 6.46933 4.03708 6.37239 6.84542 1.67493 8.76988 16.5726 32.1384 6.63826 6.75215 2.66771 11.4294 6.86199 2.16396 11.223 7.69473 3.45424 5.28087 6.38425 8.82238 5.91448 7.06638 0.832013 8.67256 8.02816 8.14944 8.81503 6.26148 9.16734 2.84508 5.87963 12.0314 12.2217 9.01267 7.04076 3.19633 7.23791 9.40828 11.5802 8.75308 9.46603 1.39708 9.43191 1.87847 11.6809 16.8761 2.06827 0.853345 2.02918 5.47659 11.0079 4.8083 11.6923 6.21979 8.49724 4.61756 9.05483 4.2029 7.9076 2.51907 7.76331 7.3988 6.89736 6.81757 4.93794 12.815 6.11178 4.55101 11.8817 2.25414 8.03898 2.253 4.52239 7.99975 254.924 5.23511 9.6461 3.24573 9.93969 4.8925 5.31577 2.1695 1.49786 4.77624 7.15518 177.783 7.54642 6.02532 8.35796 9.34028 2.52708 5.56402 3.68828 3.78022 11.2783 56.0983 4.37834 6.63878 8.11295 5.24726 6.39884 3.54386 2.32375 5.06699 9.24674 9.06136 4.61264 2.42837 11.8358 3.41947 4.91435 11.9081 4.84917 9.50826 13.5873 4.92065 23.1992 774.063 8.96337 11.4077 7.13107 8.6803 5.00164 1.97948 7.11357 12.791 12.2145 138.345 2.40094 16.6149 6.54257 11.5767 8.38384 12.0018 8.18514 16.5047 29.3139 1.80169 9.10659 15.3262 9.27683 12.2748 1.61328 8.76102 22.7462 549.48 5.43432 4.09321 19.3711 6.01943 5.95841 5.54886 5.60823 49.2371 207.229 1.3517 13.0417 12.0462 14.0552 15.5488 11.8848 12.137 29.8201 9.03447 6.78985 3.47444 13.2873 2.65113 9.38595 8.64875 17.0143 11.5375 6.55127 11.2183 12.9875 10.4798 9.55097 3.78639 41.7023 11.4649 541.982 21.177 23.6185 1.8329 10.0083 1.23035 4.28597 12.9974 7.54058 4.11838 46.6542 146.893 23.6531 36.0278 1.72678 8.62317 1209.65 6.63995 14.2908 14.5345 4.00302 6.6323 5.9552 22.2755 16.8305 12.3632 365.468 306.776 12.84 10.7907 29.4211 12.3108 3.2751 14.6193 1.95212 3.85624 1029.91 665.96 520.642 9.63111 12.2214 176.5 8.91486 10.8423 51.0749 678.712 3.53502 1.82702 12.3256 6.38981 1.53224 820.471 10.1737 18.7082 3.90469 17.3009 1.15132 29.4373 23.2404 289.241 464.986 4.9348 4.5723 8.9618 12.4553 12.5729 7.07966 12.2778 649.675 2.40548 19.7772 24.4055 950.77 11.9654 9.29618 14.7527 16.8546 13.1941 4.16925 18.931 9.31006 10.0775 11.6137 10.2823 31.2827 13.1848 8.91277 11.9388 11.2843 141.316 3.31704 39.7225 25.8066 3.68738 273.88 13.7348 11.7743 24.1464 6.0218 3.75057 9.09468 5.49962 6.34308 6.23658 12.0243 8.01851 3.15823 2.33516 9.87145 25.7289 7.83416 1.95388 5.90461 12.0574 5.2831 7.0932 15.9194 11.9335 5.29222 12.0199 31.9427 9.31699 9.59214 0.974269 5.28534 16.0113 6.90788 12.484 13.2892 5.48653 34.6621 17.4829 6.00007 11.9085 8.98469 3.93288 5.83697 3.3161 3.22573 12.0815 7.06724 7.70843 1.94117 5.34159 4.99789 5.78932 10.3567 2.81362 1.14766 11.5261 11.6761 8.21194 10.5116 4.40858 8.96333 4.66229 6.57525 4.64653 7.7653 179.174 1.65471 9.58275 6.02552 3.83011 9.99398 16.9728 9.25345 8.2541 6.18618 12.2258 4.0072 5.73431 4.1137 4.97969 2.03535 7.37145 3.37744 12.0428 490.868 6.83567 10.5179 7.07564 7.39333 10.2554 1.94368 5.09773 9.49175 2.40987 2.81328 3.75199 2.61285 4.95814 10.9502 13.5545 7.64045 144.379 6.08658 11.3885 4.71071 9.81142 27.1407 9.60673 7.41266 6.44629 4.38496 3.35824 5.72435 7.2322 9.22424 10.2549 11.7548 5.97357 9.84509 5.64013 3.67398 1.86583 4.58178 3.33887 1.17546 1.72837 9.52359 9.00395 9.42336 6.86476 13.3341 11.3544 6.80471 7.9277 5.72859 6.2577 12.0619 6.29372 5.75743 8.89411 9.27955 7.27251 2.59376 6.59489 3.22828 50.37 17.2485 1.8479 6.97165 11.4206 3.63672 11.8702 5.7068 4.5946 10.7765 11.228 7.35967 286.35 8.62187 11.4632 2.08317 8.36904 5.15927 6.42889 0.73373 7.90472 6.52921 10.4191 3.20381 1.56856 2.19983 2.40472 4.54088 1.37539 9.15542 4.75402 5.9407 387.051 3.00035 5.5673 3.36177 4.70313 4.90985 3.40821 8.89153 11.8244 3.21078 4.62586 9.11767 7.60483 16.9025 3.35243 11.9128 176.238 8.31479 213.696 8.5958 7.59679 7.5299 4.15453 4.22226 2.95903 8.52787 6.32235 7.57403 7.11336 2.35156 9.55955 121.719 2.66883 3.41385 8.44761 6.94614 5.70082 174.138 7.68407 11.3759 47.5278 66.8678 7.50402 96.0398 7.278 6.44475 11.8488 7.54335 3.39765 7.21878 8.39109 6.41616 6.34651 8.61207 12.3415 54.9525 80.4866 10.2229 10.9532 7.49808 8.05609 11.1481 2.56003 8.39502 7.76128 6.22547 3.09842 80.205 8.29858 8.50348 129.518 6.00844 7.83176 8.63947 93.4786 2.12395 4.40166 11.6816 10.8862 7.27004 2.69135 10.1111 8.41046 8.36221 13.8049 8.97817 11.2871 13.8989 48.7195 8.44192 5.57851 6.90506 4.56958 15.6474 6.89266 12.4005 12.1815 13.3773 1.83739 8.78573 5.59475 16.8915 6.35199 11.0279 3.22417 39.8107 7.31045 17.3439 104.712 22.7497 5.36836 8.98946 5.46316 15.1743 12.2421 34.6376 8.3767 33.9963 6.99818 5.67351 8.95173 16.0304 87.0354 14.2726 84.6293 25.833 2.41081 4.00334 8.09711 7.09313 4.40172 3.56243 40.9346 10.516 9.63567 17.5058 9.55907 21.6482 21.0039 1.88457 50.7788 10.5845 90.2227 4.59416 14.3327 8.2086 11.1465 3.73543 9.59387 9.08891 8.62112 10.6094 8.95448 9.11877 16.443 8.74362 9.74888 14.4374 8.71582 9.38843 9.03631 6.98714 73.7614 12.8604 6.54102 20.0131 2.78651 74.3858 13.4152 16.1367 23.3019 13.9038 54.7906 143.506 4.97084 6.72336 16.6609 16.89 4.67923 3.31076 7.01616 15.0564 38.4686 2.07254 100.586 100.146 5.78932 6.87868 8.7536 9.60953 14.0082 16.5527 8.12874 10.0581 59.0401 47.073 30.6235 7.67193 13.0334 11.8201 7.37649 5.98111 16.2401 13.8312 78.9705 25.0117 7.80314 140.314 7.90683 11.7011 9.14264 25.9888 8.10053 8.56923 5.67511 11.2357 40.7158 14.111 16.8483 58.9397 14.3982 9.05941 6.04386 14.2318 9.24142 18.5703 15.9134 13.6317 5.84108 2.75887 8.98157 21.2746 24.5809 142.935 5.08273 54.0122 10.636 20.8599 8.09231 4.31266 6.74454 3.75781 11.8076 5.18467 22.8431 4.13096 105.763 5.84563 10.4501 4.5548 8.28832 7.05721 16.3561 7.21446 29.1613 6.127 12.0229 13.2939 11.625 2.35144 6.34657 6.69511 15.6302 5.96627 18.6552 121.411 6.14263 47.0951 8.15793 8.09627 27.5113 20.8693 12.6275 19.8634 2.36337 7.92841 3.81906 16.3774 9.40293 34.5579 14.5173 14.9549 187.114 4.66903 6.1885 9.0249 15.0694 3.31726 11.7192 10.1946 20.0886 4.59793 6.60408 8.00048 6.48243 10.3897 33.4679 5.89915 21.0161 3.50206 7.49742 8.0822 7.32646 5.53202 6.92065 5.25377 7.22126 4.22333 6.7293 9.71177 14.8953 10.226 26.1971 44.5574 8.27964 1.33273 7.95504 5.35979 7.34358 13.5904 5.99058 3.56176 198.182 6.37271 39.8083 4.93458 4.12379 8.33405 4.83621 4.31583 6.00489 64.0793 6.78979 4.00062 11.917 39.9874 6.01246 7.07844 19.8822 6.57385 7.06438 8.62962 7.83961 6.87835 10.1547 15.8623 6.02892 18.68 30.4201 10.5244 15.1087 31.3964 7.44554 23.6602 12.5993 6.98771 6.51805 8.05908 7.33628 17.4233 11.7682 9.3758 11.3438 7.52474 7.94952 9.31435 7.23437 3.93814 7.00227 10.194 11.8888 8.04214 7.44345 4.55068 21.5247 8.55963 15.9797 2.04513 31.7248 20.1426 7.50504 9.30928 17.3965 24.0363 7.97594 7.44141 7.7872 18.6328 8.39839 8.29454 16.7721 6.73883 11.626 102.413 4.79813 11.2434 16.8173 8.16607 5.48625 8.50634 8.21193 26.5608 6.06536 21.7723 15.2503 7.61186 24.3064 12.0797 100.534 4.98241 20.8174 18.3545 3.22205 13.6241 17.6748 8.42957 21.9349 14.6268 53.6172 7.54447 8.08801 20.6056 12.3385 6.43023 18.5001 16.6665 115.055 12.9341 6.33933 7.90124 17.1514 13.745 12.7189 9.64503 10.9423 16.3445 13.832 17.1448 16.9647 4.2507 13.8035 23.2555 13.395 13.3872 20.8069 79.1204 11.7489 10.2962 4.33269 11.0192 17.0733 1.4871 13.8588 8.61343 13.1536 124.316 12.6203 12.0886 19.5007 14.7036 4.83925 5.48535 10.9591 73.8935 11.1834 8.61104 8.40777 17.3422 6.60667 10.0881 6.01081 10.2398 22.5422 18.5338 14.901 11.5687 1.97083 103.107 11.2602 12.6017 3.16802 15.5464 13.4069 104.34 7.98379 16.4106 3.1081 13.7197 14.2979 10.1435 201.436 81.1272 1.74501 1.55929 12.6104 118.546 9.19416 14.2173 4.3124 3.13316 12.2234 9.84862 12.0314 20.4735 3.56193 49.5782 11.4591 13.7626 3.36297 13.325 1.29437 23.6712 94.451 10.0781 120.79 16.4783 12.5573 4.10957 107.749 1.71346 9.12789 6.0054 5.54583 13.423 8.35969 2.38257 10.7534 81.2622 14.7146 15.4085 20.6049 5.09869 15.4613 55.3853 2.07029 1.35437 49.9336 14.0893 11.2687 6.07733 106.899 42.9086 13.9192 9.26724 2.38551 10.1388 5.10406 1.35991 2.21443 11.8936 12.079 17.8729 3.82787 9.16865 8.28834 6.99688 99.6095 57.2204 1.89391 3.56162 19.8737 176.372 9.65832 102.318 4.72062 10.4804 4.35675 15.3635 8.37622 9.57992 13.2099 15.5688 8.28882 8.55506 44.3449 21.4985 11.6764 78.2055 6.64866 8.30682 7.64088 165.197 72.5184 15.4408 23.4258 12.9835 14.9244 37.07 10.6211 17.0019 9.56134 14.8676 22.46 102.511 13.202 5.73889 8.27937 12.0101 104.164 1.85666 9.9178 2.00572 87.5514 23.1413 8.74027 129.442 18.1717 5.22634 2.55482 5.47666 60.5866 41.2967 14.0153 20.8185 2.32789 8.03505 2.18816 3.69574 10.8921 7.08199 13.4579 10.3212 3.48984 76.266 10.6081 6.78488 3.01646 13.2412 136.023 2.44127 73.9197 27.6084 13.3543 49.0839 21.334 2.12323 6.7861 2.63231 25.54 10.4301 2.9752 3.35745 94.832 8.94925 17.4683 7.14911 2.98202 5.20205 16.195 68.5237 3.29129 7.00657 3.46452 57.4357 37.267 4.5147 17.3993 5.66584 11.7055 8.57591 6.81179 11.2663 11.2934 8.30031 7.98772 5.83946 7.27027 5.51898 7.82306 7.43004 7.61872 11.6235 4.70201 15.6298 25.0406 12.8368 7.72605 10.7603 2.57331 15.387 11.1216 9.61832 9.57396 8.41591 8.89925 8.64606 8.13362 8.28833 11.6922 5.11851 11.3489 14.1127 5.57818 14.0093 7.38168 9.36375 7.69574 5.41047 12.3614 8.49548 10.1358 6.38852 14.7846 6.6976 17.9361 14.9999 8.68564 7.23964 8.99078 20.6114 19.4058 113.899 13.2788 6.0755 193.518 1.96616 11.4842 11.5655 6.98755 10.6507 6.676 10.9438 6.72188 8.66056 11.4117 8.7786 2.43218 12.8594 8.56062 17.3245 9.62966 8.85999 3.60654 9.41965 13.3693 7.04105 6.81954 8.8702 7.96335 8.03773 4.94502 11.5005 4.74399 6.01707 82.3671 94.7407 11.8728 12.2255 8.59153 7.43065 7.18325 3.82696 10.5457 64.7487 9.69106 19.9411 9.75494 8.61124 8.43226 8.53241 8.79874 9.44356 14.0949 6.18928 8.01999 6.15151 7.13939 49.7419 19.0971 30.5704 9.55367 9.05529 9.33254 5.47783 13.3615 7.65406 8.10169 8.62775 7.33046 7.4954 11.5136 7.34719 6.79737 6.72833 6.19664 5.54505 12.2258 32.0122 6.86255 10.2174 10.2822 125.145 36.9671 7.49381 4.46068 4.65264 4.54299 34.2957 7.3491 7.21407 13.9653 9.47478 17.8208 6.61531 16.0092 6.30637 8.90216 8.35398 8.58221 8.32738 11.2874 7.75028 87.1544 12.5425 11.0093 7.28628 7.58554 12.969 8.33395 2.93987 117.622 25.504 6.13029 8.4294 4.02117 6.23825 9.5973 8.74665 7.37608 7.80954 33.9167 10.4598 13.6532 7.41905 7.74909 9.14404 11.8104 7.23786 12.7142 10.7826 12.4846 12.4096 10.6016 9.19965 8.47175 5.17477 15.0214 19.4279 10.609 8.48677 10.2069 6.81428 15.415 9.25458 9.54898 8.38227 8.54248 11.3512 5.70045 11.7552 27.1441 7.78902 8.563 21.4091 4.62457 8.4154 11.9578 11.6593 18.4145 6.74984 9.50757 9.54812 7.04242 12.1786 14.2974 9.04139 6.18859 227.949 5.39241 9.68016 15.5441 6.54416 8.3551 11.8908 7.0835 2.67681 6.42584 9.5395 7.87065 4.60036 6.79854 7.58106 10.0923 9.56168 8.04375 23.6228 6.14481 15.6354 7.38179 4.90524 83.3102 7.62665 8.05284 7.68874 6.09606 6.64851 6.54611 3.72634 7.21866 15.0974 13.3812 10.8463 6.82367 7.26409 6.0132 83.7937 16.486 11.5738 7.82724 11.672 90.2783 8.6968 8.46351 39.4465 12.3726 18.4332 9.74377 19.8474 25.8133 11.0866 10.4664 14.1097 19.5665 9.69362 3.91743 15.3054 24.803 11.4466 5.75346 24.3407 7.85735 9.14095 8.22877 11.4741 13.4199 17.328 9.40498 10.0784 6.26232 6.30721 5.63466 2.22407 2.26038 7.84795 8.54625 7.60449 1.80297 5.71767 11.5607 11.8619 41.9412 7.45748 19.3849 13.4914 18.3307 13.0517 16.4781 12.1837 11.9803 12.228 17.1708 6.28389 6.76831 11.7333 10.8675 10.4388 11.103 9.19845 10.3307 28.1564 9.31777 7.97946 7.09214 86.4381 9.8615 78.6143 40.5114 5.40285 6.75954 17.6647 12.2884 7.34732 7.64509 7.06085 5.99837 18.9449 8.14089 6.70401 7.58436 9.82665 15.1581 2.25528 28.0035 8.41267 11.8101 13.9546 6.38184 8.11021 7.91177 12.2184 10.7016 26.5748 13.4897 3.85237 13.2817 8.94284 7.82323 21.4838 8.14271 12.0405 12.1064 11.7084 21.2767 5.20438 14.9919 7.18249 20.7309 7.75182 9.44102 13.8662 9.37609 2.15412 9.39919 5.42588 13.4611 18.7768 6.8372 12.2009 6.14018 7.01939 7.68567 127.795 4.56065 1.91509 12.2782 10.3455 470.066 6.60218 6.73866 12.0555 6.99757 7.7523 10.7335 9.89713 9.70936 6.67595 6.53798 110.644 9.1271 16.8692 4.55886 35.5871 8.14873 7.04276 8.30702 7.63897 6.86377 8.1547 39.0976 8.45038 8.58296 11.6112 12.1242 11.5589 11.3284 8.74772 8.65804 10.5084 4.59848 12.4368 6.23338 10.1077 1.82998 6.50961 4.90181 16.6319 5.55624 7.16281 6.4922 9.07623 28.8588 25.1348 9.48093 3.29362 5.26164 6.1361 65.4319 12.1542 6.9672 4.98472 10.0797 16.0483 15.9998 11.9039 9.87531 9.85874 11.9175 28.5427 10.1036 15.4855 4.35319 8.59501 12.4518 15.5438 4.25735 4.50854 12.8363 8.0245 50.3029 6.66916 12.063 10.738 11.2524 12.9024 43.6163 11.6512 8.21642 13.939 11.6165 10.571 21.2287 5.58312 11.0786 5.37231 8.81973 10.5421 5.27172 10.3517 33.84 22.9851 9.19647 7.84605 7.58662 9.5222 3.33235 7.52809 6.807 20.9899 9.82676 13.4131 4.63523 6.56756 6.08036 7.9311 7.31354 7.36123 7.76049 8.42677 8.39442 8.69311 14.691 11.7633 2.92204 12.2563 8.39434 7.99099 5.05509 104.723 61.4375 116.075 5.94081 4.13342 53.0182 5.8544 12.2503 5.93418 5.61473 10.5691 2.32328 2.18542 2.39479 5.49413 18.9242 23.222 61.5415 4.65807 11.4351 7.28967 10.2692 9.4615 4.56527 10.9127 12.3884 11.4702 15.0714 13.9911 4.30776 12.3646 12.2151 10.9382 11.8071 3.44513 12.743 6.46863 7.45578 7.85825 7.25331 7.12627 7.56298 9.0117 25.567 20.4807 9.49041 7.55958 9.09586 9.32167 16.1547 11.2664 7.88227 7.69371 7.40482 7.55209 15.6214 14.6832 11.5554 21.2751 10.6028 7.29982 7.93609 7.33147 8.18883 10.966 4.59398 6.18056 11.5824 6.06277 6.11131 6.06482 6.3239 8.64533 4.53565 61.0575 12.1956 6.8117 13.0301 8.50536 6.22111 6.08094 5.40609 10.9454 19.2579 17.7801 5.8763 9.20873 7.10893 6.5891 8.63213 8.77042 8.77513 8.58386 21.9382 2.23596 2.47262 6.89521 15.8444 13.6618 9.84112 10.0616 9.42708 9.10923 15.2543 47.0488 16.2488 11.6183 15.5755 7.47011 23.6188 7.80657 77.2838 12.3835 5.09101 6.92665 12.7902 14.039 5.89694 7.48724 6.01982 21.2175 7.58236 11.0054 8.23054 8.38737 11.3233 10.5215 4.766 8.09634 6.83485 13.4856 6.67118 4.74453 10.8702 10.6974 134.779 2.85373 9.04842 6.39704 16.3105 8.99704 8.85311 4.31662 7.06918 8.58927 8.22723 4.69749 8.07374 18.1664 7.24195 11.1203 11.2442 30.7902 12.7942 12.1257 9.28967 7.54341 8.96078 5.0716 5.65793 363.471 9.01781 8.07295 6.16587 9.9311 184.427 6.32112 5.7158 5.01166 6.22838 7.24227 5.46294 15.7828 66.1823 61.4424 15.4736 15.7982 9.3474 7.67241 7.79774 5.02788 9.69055 10.7563 4.70155 18.6605 11.202 2.53912 3.89619 5.02255 8.54519 7.80399 10.2483 8.17938 8.