<VTKFile type="PolyData" version="0.1" byte_order="LittleEndian">
  <PolyData>
    <Piece NumberOfPoints="16588" NumberOfVerts="0" NumberOfLines="0"
           NumberOfStrips="0" NumberOfPolys="143052">
      <Points>
        <DataArray type="Float32" NumberOfComponents="3" format="ascii">
          -2.94598 -0.873046 6.26704 -2.95633 -1.00084 6.30125 -2.95406 -0.67243 6.30472 -2.94422 -0.439376 6.27188 -2.93518 -0.837002 6.34718 -2.93745 -1.18194 6.3329 -2.93492 -1.48772 6.28498 -2.92932 -0.331574 6.30442 -2.93196 -1.45568 6.27112 -2.93619 -0.277385 6.28032 -2.91939 -0.244465 6.28699 -2.90981 -1.51004 6.2913 -2.77361 -0.629954 6.3158 -2.90724 -1.53856 6.27291 -2.90362 -0.236126 6.27336 -2.88572 -0.284135 6.26527 -2.80326 -0.270442 6.2655 -2.81814 -1.40029 6.30308 -2.79013 -1.58972 6.26468 -2.6221 -1.09411 6.31079 -2.83184 -1.51892 6.25743 -2.69367 -1.40966 6.2341 -2.74415 -0.434767 6.2892 -2.6482 -0.35088 6.24166 -2.61807 -1.63967 6.24314 -2.54045 -0.662353 6.21248 -2.39084 -0.483951 6.23034 -2.37767 -1.71353 6.21283 -2.32438 3.95935 6.6424 -2.30938 4.22922 6.61924 -2.21208 4.09406 6.55633 -2.31201 4.24517 6.63564 -2.3024 3.61104 6.65513 -2.29679 4.04287 6.68339 -2.29969 4.1588 6.66183 -2.30676 3.80862 6.67513 -2.24715 4.25351 6.58453 -2.29622 -0.75011 6.25357 -2.28996 3.57439 6.66364 -2.28784 3.7316 6.68559 -2.28324 3.92264 6.68993 -2.24342 3.52023 6.62479 -2.10079 3.97876 6.5655 -2.1594 3.655 6.60826 -2.13243 -1.74399 6.213 -2.08829 -0.611433 6.17377 -1.99208 -1.84648 6.17714 -2.00148 -1.10281 6.23446 -2.05014 3.42763 6.5196 -2.0139 4.2028 6.42847 -1.98499 -1.83617 6.15373 -1.95841 4.59677 3.33727 -1.96542 4.71383 3.3324 -1.95423 4.86327 3.32698 -1.94833 4.64528 3.30825 -1.93517 4.8889 3.30355 -1.93155 4.94279 3.3161 -1.92986 4.39456 3.32757 -1.91422 4.51283 3.29541 -2.00501 3.84816 6.51555 -1.89939 4.28725 3.32923 -1.85669 4.9336 3.41149 -1.85937 4.82245 3.43687 -1.89845 4.28905 3.30792 -1.85287 4.33477 3.34962 -1.86492 4.93722 3.3812 -1.6707 3.22213 6.26469 -1.86343 3.55162 6.42881 -1.8495 4.22829 3.36385 -1.74921 4.57508 3.56951 -1.76656 -1.50214 6.20568 -1.70232 4.89087 3.55027 -1.81181 -0.822704 6.18749 -1.73467 -1.67371 6.10291 -1.70291 4.91387 3.57289 -1.73099 4.29323 3.54746 -1.6853 4.12954 3.53398 -1.72855 -0.851832 6.10838 -1.62759 4.40512 3.5897 -1.65577 -1.98127 6.14371 -1.51202 -1.91698 6.07733 -1.59711 -0.801548 6.11335 -1.52924 -0.833356 6.138 -1.49743 3.23152 6.13302 -1.53756 4.87759 3.7345 -1.51799 -2.01482 6.14322 -1.43472 3.8268 6.13941 -1.5187 -2.0236 6.0915 -1.3816 -1.89837 6.1504 -1.31298 3.1766 6.0897 -1.34477 -2.12339 6.1071 -1.17109 2.97518 5.98513 -1.3211 -0.935462 6.12706 -1.33411 4.7725 4.00719 -1.29527 5.07409 6.17165 -1.27175 3.86879 5.93842 -1.25558 4.6169 4.10243 -1.28272 4.06203 5.95436 -1.2738 5.32708 6.14358 -1.26825 -1.98255 5.89841 -1.26305 -1.69564 5.90283 -1.25956 1.21307 5.43512 -1.26212 -2.07326 5.92168 -1.25041 5.35552 6.17073 -1.25411 -2.1416 6.05565 -1.25185 1.21653 5.48569 -1.2534 -1.9326 5.87355 -1.24727 -2.02864 5.88588 -1.24443 1.34599 5.4756 -1.24705 -2.05996 6.06574 -1.24937 1.71601 4.6844 -1.24903 -1.33282 5.91541 -1.24786 -1.72819 5.86774 -1.23714 3.85827 4.03035 -1.23754 -1.69735 6.06501 -1.24562 1.55158 4.6471 -1.24498 1.20365 5.44659 -1.24257 5.52953 6.14734 -1.23909 -2.19492 6.05844 -1.23898 1.41643 5.17844 -1.23786 -1.37245 6.03421 -1.2245 1.8804 4.69817 -1.24007 1.21094 5.19495 -1.20673 1.21762 5.51921 -1.2309 -0.981551 5.95931 -1.22547 1.69725 5.22756 -1.22525 -2.09702 5.90795 -1.2137 -1.13287 6.05695 -1.23977 5.59776 6.12048 -1.22221 1.20359 5.47379 -1.21873 5.54907 6.15603 -1.21954 -0.909146 5.96064 -1.21198 -1.26839 5.87126 -1.23042 1.40413 4.84107 -1.18134 1.47657 4.58826 -1.14063 1.3536 5.53671 -1.16094 -1.82354 5.84497 -1.21587 1.35183 4.61253 -1.17859 1.5382 5.49484 -1.20762 -0.923508 5.90884 -1.2051 5.72291 6.1332 -1.20242 -0.893212 5.92812 -1.19612 -0.891639 6.03737 -1.19687 5.83904 6.10164 -1.12066 -2.19092 5.97718 -1.19284 1.95548 5.06933 -1.17749 1.30535 4.57475 -1.19821 1.21066 4.7014 -1.19279 1.23965 4.59424 -1.16255 1.57022 4.89773 -1.18467 2.02845 4.72561 -1.14868 3.88984 4.16374 -1.12846 -1.06183 5.84992 -1.17129 -0.900021 5.89889 -1.17299 1.20376 4.59444 -1.17143 1.36615 4.70989 -1.16751 1.99636 5.4113 -1.16209 1.20789 4.56558 -1.15136 -0.927335 5.87441 -1.14999 1.37881 4.62533 -1.13836 1.87634 5.22275 -1.13621 1.90736 5.33144 -1.14367 1.53804 4.66603 -1.15344 2.10733 4.94819 -1.118 1.27587 4.53685 -1.13151 1.21428 5.54873 -1.09115 1.64492 5.42353 -1.13374 1.70805 4.58972 -1.09289 -1.37488 5.82698 -1.01149 1.54492 5.46114 -1.12723 1.76046 4.79379 -1.11788 1.93279 5.13819 -1.11193 1.91075 5.36016 -1.10971 -0.922968 6.03213 -1.02748 4.74394 4.26536 -1.07201 5.5839 6.07104 -1.13363 2.15046 5.24916 -1.09942 -2.15026 5.89968 -1.0608 -1.15604 6.0146 -1.10609 1.97328 5.34308 -1.10397 1.82409 4.7039 -1.04723 1.20543 5.52675 -1.09671 1.73789 5.52025 -1.04586 -2.27644 6.02977 -1.09899 1.89327 4.75475 -1.08062 2.27243 4.7518 -1.07015 3.76968 4.18028 -1.08683 2.02386 5.23145 -1.09387 1.94637 4.86218 -1.08486 2.30275 5.41396 -1.01 1.35642 5.50008 -1.05954 4.79064 6.04641 -1.083 2.0063 5.02719 -1.07922 2.02566 5.3327 -1.06995 1.92675 4.70355 -1.07077 1.20788 4.5438 -1.08484 2.14235 5.46099 -1.1001 1.20589 4.52781 -1.06323 2.00113 4.74361 -1.03734 1.79969 4.66143 -1.06819 -0.995729 6.03086 -1.04267 -0.944666 5.94735 -1.05238 2.05629 5.31083 -1.04826 2.90699 5.87635 -0.969253 4.77483 4.35658 -1.04877 2.03839 4.82023 -0.939156 4.59366 4.33841 -1.04001 2.00238 4.71137 -1.0515 1.20391 5.5518 -0.881 5.7451 5.92499 -0.990774 -0.980471 6.06319 -1.04381 1.95727 4.58799 -1.04131 2.03654 4.74682 -1.02587 2.0606 4.94276 -1.02611 3.53807 5.739 -1.01725 3.5997 5.62382 -0.996895 1.46669 5.57493 -1.02996 1.37058 4.50655 -1.01331 2.03897 5.35035 -1.02015 2.48667 5.42923 -1.0188 2.06462 5.30712 -1.01378 3.35722 5.70382 -1.01773 3.81209 5.69729 -1.08212 2.29564 5.01145 -1.00568 3.30962 5.76693 -0.981211 3.49143 5.44429 -1.02819 -2.18183 5.8965 -1.01577 1.2105 4.49683 -1.03471 -1.02247 5.82712 -0.999407 -3.1988 4.64629 -0.999389 -4.42713 5.39157 -0.999148 -2.27186 6.0806 -0.995953 -4.88326 5.01721 -1.01664 2.03956 4.7207 -0.997429 -4.02893 4.1213 -0.996823 3.99925 5.6319 -0.987712 3.86473 5.46823 -1.0793 -1.17733 6.11745 -0.991052 -5.12656 4.46422 -0.996905 -3.05538 5.87597 -0.994599 -2.28826 6.05458 -0.994676 1.22145 5.57795 -0.999619 2.0623 4.77452 -0.911165 1.72869 5.43107 -0.994135 -4.40602 4.10052 -0.993532 1.92579 5.38517 -0.991093 -2.20665 5.75294 -0.991097 -2.14215 5.86274 -0.994068 -4.88451 5.74526 -0.883287 4.76112 5.92857 -0.987346 3.16106 5.77129 -0.97794 4.04682 5.67546 -0.954818 1.20379 4.52979 -0.939208 4.67898 4.44858 -0.984487 -5.08086 4.09786 -0.98846 -2.22673 5.92602 -0.986942 -1.01375 6.08774 -0.98219 -2.46472 5.99753 -0.978332 -3.14674 4.08404 -0.978105 -3.45008 5.98857 -0.975863 -2.18231 5.88917 -0.975684 -4.99496 5.84482 -0.979979 -5.41471 4.19135 -0.975168 3.12104 5.69931 -0.983987 2.04845 4.72057 -0.967655 -1.40518 4.10452 -0.991534 1.64031 4.61686 -0.966162 -5.72964 5.34178 -0.9656 -2.02623 5.84481 -0.961957 -2.22433 5.97484 -0.927184 3.28409 5.25938 -0.974232 1.90647 4.66978 -0.971204 -5.45511 5.74858 -0.986996 1.99288 4.69164 -0.965749 -1.23292 5.49697 -0.937521 2.04942 5.32433 -0.967104 -5.4593 4.10157 -0.951899 2.71783 5.43356 -0.958316 -4.69219 5.9115 -0.956682 -1.04266 4.16498 -0.933229 -2.24679 6.05626 -1.01794 3.82302 5.86723 -0.950156 -2.22641 6.02351 -0.946007 -3.86647 5.9961 -0.952537 -1.87462 4.08149 -0.957014 -5.86316 5.55444 -0.949798 -1.10427 4.08954 -0.950217 -5.24225 5.83254 -0.937388 -3.55141 6.01859 -0.948369 -1.07106 5.99945 -0.937356 -2.1624 6.0978 -0.952846 -0.947645 5.77705 -0.940985 -2.09149 6.02423 -0.945797 2.05474 4.78603 -0.942929 2.65677 5.16865 -1.05819 3.47668 5.92008 -0.950418 -5.7587 4.11821 -0.913599 -5.26022 4.08776 -0.946624 -0.846136 5.87341 -0.960527 4.11377 5.42629 -0.939645 -6.047 5.3789 -0.940855 2.92555 5.41762 -0.9362 4.32424 5.60108 -0.933464 -1.38988 5.81227 -0.927823 -5.66938 5.7579 -0.883407 1.39604 5.58808 -0.87655 -2.69672 6.06574 -0.910189 4.05267 4.95909 -0.938461 -5.88841 5.68773 -0.930491 -1.88596 6.02409 -0.937187 3.03359 5.57914 -0.927864 -0.536092 4.95498 -0.918081 3.67382 4.3723 -0.924227 3.09277 5.42576 -0.901588 1.2038 5.53939 -0.922328 4.38613 4.34 -0.930436 -0.983834 5.97554 -0.921722 -3.28401 6.03672 -0.948341 2.53037 4.7842 -0.923172 -1.06313 5.80824 -0.928568 2.23265 5.5534 -0.928499 3.06054 5.36867 -0.919164 -0.557552 4.0898 -0.921664 2.01606 5.36536 -0.918024 -4.55129 5.94743 -0.934854 2.03997 4.71631 -0.917186 -0.990366 5.93177 -0.925348 1.33818 4.48474 -0.92971 -6.02757 4.28466 -0.912388 -6.06966 4.13464 -0.917395 5.74046 5.96373 -0.933564 -6.06838 5.06086 -0.912382 -1.48541 6.02299 -0.871959 4.40946 5.65406 -0.909616 -0.412725 5.97893 -0.862273 -4.88643 5.91494 -0.910341 -0.326355 4.17694 -0.907395 -0.999651 6.00738 -0.901129 2.70153 4.83163 -0.914729 1.43105 4.57805 -0.902181 2.04246 5.26361 -0.907634 -1.04569 5.96282 -0.911005 2.87463 5.12413 -0.930511 3.7049 5.09364 -0.903095 -1.02939 6.01557 -0.864573 3.70715 4.46841 -0.903823 1.99815 4.69264 -0.919135 -6.15208 5.62369 -0.903594 -1.07398 6.01781 -0.924806 2.41737 5.52364 -0.89932 -0.20481 5.78512 -0.837207 -3.74639 6.02697 -0.892597 2.03477 4.80057 -0.90877 -6.32665 5.45565 -0.897599 2.84131 5.79764 -0.894224 3.99198 5.70304 -0.910109 -2.30792 6.01693 -0.887935 4.52275 5.32705 -0.942387 1.90727 4.50847 -1.0073 3.25771 5.89878 -0.888426 2.03147 5.3373 -0.880985 -0.459316 6.02839 -0.882307 2.01707 4.72162 -0.844682 -0.953071 6.06929 -0.883438 -6.27075 4.15406 -0.882849 4.52031 4.58196 -0.887687 3.29584 5.71325 -0.881429 3.99205 5.75597 -0.885029 5.01702 4.52512 -0.886049 4.182 4.76543 -0.882173 4.01192 5.72775 -0.880456 4.49557 4.9743 -0.91893 1.73879 4.47938 -0.810319 -0.695869 6.06908 -0.876103 2.75355 5.63863 -0.87157 0.0476838 4.98451 -0.860132 4.87924 4.64197 -0.848418 4.58694 5.92239 -0.879211 1.20979 4.49925 -0.
[...]
      <PointData Scalars="T">
        <DataArray type="Float32" Name="T" format="ascii">
          295.49 293.922 289.459 288.536 288.729 293.252 304.888 281.672 303.467 281.435 277.543 306.41 284.291 312.65 278.276 282.555 277.24 296.721 314.451 289.934 307.2 301.243 282.264 274.347 316.978 291.411 272.113 318.588 292.243 279.641 289.345 275.282 301.731 283.175 279.406 292.663 273.065 283.336 303.359 292.739 287.615 309.172 285.196 296.131 307.118 269.26 318.624 286.443 308.226 274.448 320.16 296.092 292.412 284.137 297.419 285.242 278.273 302.598 301.087 288.678 309.084 273.416 282.751 309.691 303.628 275.857 316.91 294.127 311.074 290.385 290.482 277.494 277.828 300.196 271.346 299.026 315.69 283.051 296.855 321.299 304.726 266.935 265.617 303.446 272.22 313.395 285.861 320.141 294.27 296.146 319.144 317.013 269.164 279.097 297.439 292.496 286.759 272.012 291.058 305.847 295.135 308.414 315.405 287.175 315.621 306.564 305.069 313.002 292.276 305.928 292.713 291.447 298.333 320.568 290.296 298.024 310 285.986 322.636 296.6 289.27 289.762 303.387 309.785 274.298 292.871 325.615 281.713 287.818 317.384 284.428 262.483 294.866 301.311 299.574 293.296 303.282 303.894 287.908 269.485 282.214 257.614 256.751 278.262 330.497 290.113 304.091 309.286 310.384 298.645 284.745 301.33 284.846 258.764 314.392 302.769 285.744 313.154 267.615 300.822 298.043 297.585 298.481 286.775 304.426 313.83 302.129 295.504 296.763 305.76 297.273 300.936 300.307 255.039 276.693 287.137 286.555 329.433 278.385 299.982 294.707 322.501 287.584 323.203 297.241 275.961 322.322 307.195 298.643 274.529 305.292 304.789 305.001 302.801 295.22 314.225 279.645 315.711 299.085 295.153 265.153 254.873 307.84 320.951 266.031 308.533 290.352 297.231 319.404 278.735 256.177 292.496 302.299 315.193 289.011 292.332 292.628 303.047 307.781 272.828 311.145 296.052 283.52 275.2 293.86 296.751 320.264 318.848 282.14 293.828 292.439 310.983 294.439 302.662 299.993 280.394 288.309 276.537 296.859 288.989 314.068 312.645 311.484 306.832 301.147 304.99 291.762 304.646 292.339 298.861 297.041 275.33 317.478 279.919 303.654 304.508 262.454 287.473 302.445 287.025 301.554 292.143 301.917 301.05 303.941 298.924 297.665 297.543 296.916 302.023 301.163 296.178 294.756 297.868 287.596 318.491 306.379 283.204 289.367 295.39 297.476 283.42 299.518 286.123 301.907 297.725 298.972 292.505 285.393 273.511 292.601 283.822 293.724 317.442 281.173 287.711 308.307 306.745 283.049 284.266 299.943 289.957 275.405 287.744 294.833 293.813 282.765 291.521 296.755 287.732 303.386 285.391 322.611 298.408 324.193 294.578 272.694 284.24 275.068 282.812 279.402 292.481 296.477 311.34 287.814 306.888 275.315 307.106 306.928 312.041 277.829 301.102 282.839 271.764 280.827 289.864 291.908 272.717 283.074 300.747 324.572 275.422 288.049 294.78 273.025 305.5 300.402 299.215 274.361 277.141 282.216 284.27 316.597 301.032 304.177 276.304 293.813 280.129 297.108 288.754 316.551 277.976 306.91 275.974 311.889 293.554 291.93 273.095 293.032 292.712 274.93 285.419 303.147 277.616 304.914 283.005 287.938 307.384 320.054 322.256 322.263 295.63 297.69 295.299 311.253 279.752 297.024 275.328 278.81 287.203 297.459 298.715 288.075 298.876 280.904 299.269 277.26 303.872 299.022 279.517 309.674 295.882 284.538 305.307 288.85 287.442 320.372 282.243 294.597 278.97 314.566 278.583 286.472 313.29 292.131 301.78 297.584 291.788 300.659 274.53 306.333 300.771 316.006 282.506 304.492 299.673 310.282 294.811 284.398 295.723 286.235 297.896 293.455 295.806 288.894 297.523 296.427 282.467 291.398 325.391 302.605 292.436 321.432 291.022 311.525 300.603 299.804 299.574 275.772 277.572 310.791 316.162 317.722 292.163 320.644 314.277 299.118 288.989 301.8 282.846 305.408 304.293 322.36 317.412 317.492 303.589 298.036 310.959 294.407 306.528 295.587 277.042 285.108 273.206 286.593 283.263 301.256 282.854 276.454 275.967 295.769 291.424 279.056 290.787 302.101 278.264 303.718 303.361 297.231 305.425 304.139 299.735 302.698 293.437 298.778 269.35 305.106 314.576 269.882 287.403 292.681 275.844 284.106 300.306 298.559 301.44 303.87 300.925 300.038 279.286 294.806 302.321 300.005 314.627 286.599 276.503 309.714 284.948 273.616 289.5 278.02 303.699 294.641 295.634 285.26 289.537 280.684 282.132 302.341 277.667 297.951 282.409 285.356 285.96 309.698 283.892 278.55 309.736 283.63 274.609 277.541 306.346 310.773 321.098 283.475 278.628 282.581 289.359 282.898 277.369 274.371 308.83 300.461 289.343 284.796 293.552 307.452 274.146 293.797 295.659 300.88 303.116 295.032 291.837 310.536 300.261 314.901 279.483 293.815 289.376 284.088 276.224 268.681 292.323 284.957 294.092 286.895 304.754 271.188 286.536 301.552 298.093 290.748 288.61 304.289 286.456 283.746 318.725 294.829 283.548 293.476 281.644 283.707 297.622 317.293 277.337 307.151 282.445 282.171 271.627 274.345 290.761 291.853 282.229 293.038 296.987 281.892 291.517 299.41 297.77 292.491 281.921 292.953 288.325 323.798 277.058 299.975 297.346 306.662 277.473 307.456 282.278 293.352 301.052 309.315 287.974 326.27 295.677 271.715 292.609 330.476 278.046 276.265 293.248 293.875 293.847 294.414 298.106 279.733 283.316 285.638 281.043 296.581 294.171 332.005 278.68 281.875 298.392 282.263 297.568 276.703 297.755 282.634 298.412 342.752 280.885 293.169 281.642 290.999 292.72 326.747 274.643 297.586 290.477 293.144 296.059 292.287 304.859 282.067 292.201 298.385 295.664 295.473 292.81 281.013 292.798 281.139 281.524 287.016 276.51 279.365 279.825 279.585 276.245 289.319 271.69 278.487 262.097 279.637 277.874 293.596 266.684 276.627 295.397 291.258 293.018 261.393 287.267 270.697 269.121 270.588 291.281 281.079 268.309 290.777 340.924 269.657 281.083 298.241 269.334 279.198 295.374 294.437 293.619 293.807 278.571 328.036 275.887 295.213 293.457 291.464 289.28 280.221 294.426 289.061 294.643 294.125 273.272 294.068 266.159 292.924 296.277 294.83 264.745 290.954 287.915 265.079 243.42 264.041 285.211 283.276 274.819 287.071 296.224 277.345 293.199 294.259 278.765 289.499 264.41 273.698 321.172 289.25 279.068 288.495 287.663 296.114 267.47 294.288 270.579 293.276 273.018 278.368 271.697 283.363 291.876 331.224 274.558 284.989 281.54 289.947 274.113 282.623 265.955 348.331 266.018 287.316 298.772 333.421 279.27 356.413 271.578 300.059 293.909 284.333 263.639 282.14 295.696 266.534 281.781 288.433 296.669 281.466 310.179 278.855 287.857 294.837 277.206 275.623 266.179 281.434 280.208 295.602 295.485 268.718 285.465 283.93 282.726 289.667 282.843 273.35 296.625 273.007 285.894 303.029 280.527 294.583 305.164 279.045 281.807 293.892 284.497 279.466 282.113 264.12 284.502 281.673 266.623 290.51 266.894 280.701 271.211 280.548 279.712 289.806 297.235 261.929 281.728 276.343 299.914 297.424 275.338 268.532 283.558 267.024 346.267 274.978 284.195 267.006 281.244 295.919 295.33 356.549 265.315 277.812 278.859 282.95 281.556 278.941 299.793 295.568 277.56 291.171 280.005 283.592 275.679 285.119 271.236 279.593 283.402 290.577 267.26 283.257 276.939 285.905 271.653 286.386 276.364 285.309 340.672 277.636 364.047 289.793 267.773 296.285 274.573 312.139 286.372 276.689 278.694 281.639 274.237 313.969 339.604 293.934 301.518 257.812 282.71 355.172 274.285 281.127 283.483 292.823 286.974 370.627 359.452 298.62 282.991 278.478 291.948 286.937 279.887 272.07 287.783 260.285 284.968 352.425 364.63 373.949 280.799 276.044 332.192 290.61 279.125 269.074 311.394 367.713 283.678 266.372 287.809 272.377 358.718 280.451 283.223 287.822 316.928 239.69 291.946 278.717 361.386 276.567 269.145 285.11 299.337 276.131 285.911 349.283 266.96 295.319 289.095 358.695 290.023 285.758 294.163 281.791 278.063 293.644 304.539 281.095 284.125 285.599 279.613 333.406 277.775 278.761 329.995 279.364 357.076 289.861 279.175 282.857 282.192 285.207 280.561 280.819 288.675 295.499 265.866 282.095 280.786 278.087 260.171 262.907 270.622 278.526 283.705 261.655 278.528 299.3 276.494 278.608 289.547 297.507 281.993 295.734 281.376 298.463 264.741 289.911 275.776 284.606 268.726 288.143 281.876 298.362 287.291 281.281 283.741 282.462 297.509 275.89 280.523 296.588 266.892 285.903 269.639 299.218 299.591 289.368 299.987 281.863 273.309 239.046 295.286 282.803 276.799 285.983 281.674 353.794 285.077 293.983 273.107 265.922 283.125 292.839 313.778 290.096 282.809 296.418 285.7 280.811 286.772 282.025 296.069 300.481 287.741 275.093 278.028 273.27 267.501 290.938 283.77 295.522 347.175 288.98 283.468 267.275 291.514 297.028 286.548 266.532 283.206 271.058 268.248 281.63 266.441 272.846 297.363 290.253 331.745 295.361 288.102 276.164 288.481 275.094 283.712 326.247 290.165 290.912 287.862 272.456 281.075 297.121 288.946 278.947 293.366 265.145 294.109 294.251 267.945 294.382 284.485 285.123 266.791 276.145 280.254 262.573 279.169 262.962 294.224 291.589 294.609 269.391 293.693 282.811 291.058 289.539 295.202 294.559 294.477 292.637 278.767 295.181 293.57 294.446 289.95 272.023 267.985 303.706 280.206 307.893 265.546 283.284 273.683 291.737 275.835 289.313 268.572 293.833 288.418 268.899 265.022 347.799 318.075 293.372 295.392 260.611 296.025 279.537 278.025 259.612 265.932 268.6 281.33 275.843 263.093 278.44 343.452 308.789 277.106 293.741 280.234 279.182 278.014 295.578 280.056 278.197 293.511 278.147 275.763 277.659 306.468 290.915 281.667 280.617 293.565 346.902 292.811 292.73 295.526 282.291 281.272 292.879 278.724 297.112 287.099 293.348 294.391 272.58 277.178 295.074 293.709 344.684 273.35 287.059 292.87 296.373 297.303 338.562 297.574 281.72 283.767 300.687 333.087 293.243 339.783 291.955 330.565 292.794 295.828 294.801 297.489 287.704 328.936 330.034 295.047 300.309 294.909 278.988 290.525 299.677 293.152 271.494 281.434 279.402 297.634 328.52 295.774 293.299 322.232 289.306 299.81 293.624 307.83 270.486 274.609 298.141 293.126 282.756 278.234 278.75 279.679 296.556 314.479 281.914 280.911 282.135 323.846 291.024 291.221 278.314 325.156 284.579 292.809 280.974 269.187 293.286 311.944 292.925 276.353 284.571 283.992 291.024 278.884 273.295 316.38 320.308 292.162 287.714 296.789 294.543 312.169 296.915 296.688 291.089 287.032 293.375 303.331 299.162 301.496 273.273 316.329 291.089 293.92 292.758 317.544 289.238 308.624 295.178 277.946 276.818 301.979 299.598 278.619 289.325 312.787 283.858 281.048 280.758 306.066 277.839 299.385 297.147 270.533 300.582 283.619 305.83 289.843 284.745 295.217 283.843 277.387 287.095 277.64 285.845 282.982 284.451 278.366 294.554 297.794 285.173 298.675 296.224 285.878 277.823 299.667 308.099 299.457 303.441 293.605 301.969 275.472 312.623 302.18 300.717 310.712 318.295 289.956 283.993 297.092 303.71 304.188 275.547 314.067 277.575 294.329 294.701 304.885 325.227 269.429 315.717 303.878 319.541 281.762 296.899 298.485 276.999 306.909 274.49 286.229 302.91 303.274 306.604 319.074 303.174 304.191 285.252 295.613 294.584 313.35 301.532 302.542 308.958 306.202 299.179 302.046 287.841 282.408 286.181 310.46 295.203 276.769 293.63 285.391 312.081 318.473 312.94 292.595 299.543 278.766 302.082 302.053 329.161 303.385 280.432 279.384 315.789 292.884 309.157 297.607 303.512 297.965 292.05 277.338 301.451 311.992 298.764 309.164 325.292 290.066 295.239 301.407 291.085 278.469 276.19 321.515 274.695 286.297 312.978 283.755 291.208 300.682 282.435 275.282 309.267 290.576 306.553 290.287 299.809 296.329 356.785 302.859 276.557 274.883 282.353 296.932 298.658 310.783 326.212 292.378 302.567 297.268 305.51 298.852 323.66 293.702 283.91 297.397 302.011 275.233 293.074 297.155 286.838 290.357 300.013 300.443 314.641 300.513 288.639 325.122 294.996 290.459 302.91 308.784 282.385 299.361 298.9 308.32 276.873 287.692 287.398 287.209 288.701 297.502 294.066 287.864 304.868 314.991 297.414 281.421 296.8 283.152 288.742 290.746 274.768 314.108 303.375 301.478 300.44 274.007 286.755 296.707 292.996 292.886 291.863 291.296 304.525 294.017 320.519 290.968 296.127 286.985 275.567 283.69 283.849 324.26 278.958 271.401 275.634 310.347 272.243 279.487 286.785 272.449 298.883 288.095 283.283 305.995 294.756 280.66 283.509 297.94 312.604 295.61 291.6 276.296 284.477 300.012 283.852 306.849 298.989 279.623 272.745 286.528 301.361 298.472 304.675 275.009 280.443 285.231 285.22 289.239 274.931 282.812 277.336 287.261 293.454 286.048 292.524 305.511 289.498 280.539 295.2 282.297 305.581 283.483 269.078 294.901 308.847 287.601 298.789 320.354 289.614 283.115 293.082 289.967 304.729 296.605 287.771 284.374 306.022 293.071 325.056 274.52 300.704 323.065 282.573 289.578 315.593 302.082 285.401 305.224 286.376 292.863 278.285 298.261 299.951 279.875 287.515 295.746 317.746 282.578 301.872 290.087 278.161 294.732 315.485 293.834 299.393 291.464 302.873 305.962 306.878 291.206 289.934 293.507 301.744 305.757 304.28 297.518 314.404 289.36 287.437 293.35 295.09 305.555 294.752 296.136 289.859 297.68 291.337 299.942 310.282 297.591 276.857 304.184 294.875 300.741 302.764 305.901 310.854 301.407 291.693 279.05 266.838 298.391 293.094 295.569 312.645 292.263 291.898 277.34 292.529 319.029 304.323 300.69 295.922 305.265 290.37 314.748 304.983 289.619 295.962 285.817 291.933 296.594 317.634 292.445 305.17 308.908 295.751 298.576 292.841 264.558 319.192 273.245 299.691 274.459 256.551 302.115 316.739 296.746 304.855 277.36 308.289 289.649 327.944 331.664 267.926 262.16 255.867 299.891 315.119 294.541 320.858 268.397 301.652 297.116 295.566 324.462 266.887 298.927 300.224 282.604 297.311 284.441 256.045 296.953 301.948 321.603 296.578 322.256 295.851 298.186 280.374 290.167 259.612 299.598 288.822 296.199 321.433 265.312 296.876 315.14 299.556 289.128 298.892 302.977 283.679 293.919 306.974 315.875 267.748 306.865 260.303 301.888 296.81 310.133 286.765 314.304 272.6 306.087 301.697 290.107 258.062 290.262 281.927 256.182 264.984 284.219 296.914 286.552 290.523 291.133 310.94 289.796 261.62 302.111 293.616 329.015 292.363 317.635 299.205 305.667 285.828 296.998 302.505 303.91 299.055 278.963 293.381 295.391 329.107 324.279 319.983 296.078 324.098 299.076 307.484 294.289 291.96 297.283 312.271 292.461 319.011 310.043 303.012 288.603 316.624 304.022 299.409 295.133 294.985 313.475 291.853 292.343 320.313 287.515 296.028 269.049 323.127 296.271 267.491 271.681 316.824 294.057 289.935 314.083 300.41 321.261 305.827 283.894 274.328 285.711 311.971 306.181 310.264 302.474 303.976 292.414 294.364 272.267 278.619 298.634 285.703 300.074 285.749 293.943 283.42 294.327 318.837 297.602 286.914 317.933 272.497 310.459 302.057 290.264 305.461 297.355 271.634 285.078 273.49 301.451 288.562 272.176 277.546 303.239 315.144 291.393 275.87 282.531 300.721 315.884 309.423 277.53 278.256 304.683 304.312 282.661 298.03 293.291 289.59 285.934 289.834 288.821 292.48 295.542 274.734 311.92 298.029 301.34 295.915 287.527 311.432 276.877 280.811 285.203 288.368 319.241 308.129 311.565 301.082 288.671 277.061 293.577 286.611 292.693 285.151 280.299 292.521 281.987 276.879 288.32 279.856 292.969 282.437 297.054 283.432 295.707 299.52 288.632 280.207 295.589 287.749 289.453 283.731 281.329 287.689 275.075 293.877 281.956 276.365 293.845 298.214 289.251 318.953 304.101 273.874 296.81 294.776 291.522 276.882 324.002 297.041 267.256 282.968 285.795 324.576 310.888 281.48 285.315 296.475 307.456 281.38 289.369 290.066 297.951 277.539 290.759 290.625 296.317 288.222 293.349 289.097 271.688 322.952 322.793 280.225 284.559 281.243 275.271 293.804 279.556 292.739 299.776 311.623 280.649 284.613 290.253 297.677 296.941 297.801 281.697 281.184 284.703 277.749 276.771 288.329 301.047 301.333 311.283 279.095 278.389 287.105 293.396 296.418 295.7 283.984 284.202 285.712 289.981 291.146 297.785 293.954 293.963 291.247 300.46 291.942 304.206 296.546 292.203 296.657 296.816 324.475 304.655 305.759 278.071 276.045 277.876 276.255 289.901 295.462 300.272 285.911 293.709 295.682 301.842 316.031 297.936 291.179 284.012 282.485 284.812 293.455 297.934 294.996 293.085 320.373 276.856 277.673 288.029 289.605 286.865 284.254 293.283 292.046 285.85 285.846 288.161 293.123 316.819 283.618 283.657 282.031 293.144 292.03 294.365 306.505 301.995 297.764 288.564 287.069 284.364 283.123 281.896 279.02 296.905 298.208 297.499 296.693 294.651 277.532 285.828 274.324 284.581 295.99 278.918 282.155 297.166 301.696 291.404 308.972 289.724 282.36 297.372 275.049 293.266 291.07 298.4 285.576 280.834 285.581 285.17 286.525 276.678 282.184 295.848 286.639 284.457 283.19 282.076 283.839 313.845 283.349 288.665 300.131 290.632 289.93 272.749 286.88 293.196 288.718 283.769 289.889 287.349 276.668 272.501 293.75 301.193 281.558 278.428 286.972 306.794 289.63 292.386 298.917 316.682 273.761 299.016 302.521 291.14 284.017 289.636 287.41 287.678 283.659 295.7 288.279 293.11 284.227 298.573 279.42 290.747 289.862 280.76 311.228 284.311 288.532 295.439 310.366 300.671 282.084 273.739 307.362 307.5 302.064 306.157 315.181 301.93 282.731 292.916 267.915 325.965 287.27 281.06 304.3 285.154 302.721 283.971 263.035 295.847 319.857 274.263 287.883 286.848 283.778 299.803 298.444 277.603 298.772 281.545 302.315 291.723 297.002 283.967 283.36 272.885 268.018 292.809 295.315 294.038 298.277 278.424 282.219 307.304 287.741 300.493 290.8 300.175 305.315 298.48 300.818 295.712 304.692 289.806 276.551 296.921 296.355 318.831 291.69 281.543 276.073 296.268 290.133 292.793 277.281 294.668 293.466 279.32 306.759 311.322 283.326 305.08 284.049 280.869 292.728 284.981 294.389 299.299 292.706 310.113 288.475 288.935 293.384 295.76 290.151 285.459 288.5 283.768 297.487 295.226 273.773 295.341 289.228 298.738 275.788 306.334 326.275 270.509 300.919 290.327 285.264 295.807 288.096 305.953 303.708 306.951 278.757 277.926 296.393 295.447 292.755 299.306 305.338 282.902 291.442 301.816 312.237 293 282.881 267.502 291.58 281.891 298.264 288.453 292.7 289.322 275.896 282.066 289.594 281.888 281.337 317.961 286.603 288.713 288.947 286.871 290.986 296.945 368.836 298.444 280.222 306.177 302.214 298.139 269.219 287.395 281.834 293.435 282.437 289.254 301.307 324.826 281.105 292.554 299.186 281.777 295.599 282.021 293.708 286.47 308.64 293.259 295.443 295.618 289.241 292.832 304.788 278.854 277.505 288.777 287.664 294.341 286.529 286.997 296.92 299.203 283.582 288.185 285.947 297.434 280.631 283.539 287.653 302.316 287.416 290.23 288.554 304.705 291.676 292.019 292.361 287.527 285.998 281.492 279.547 288.288 290.016 321.04 296.658 280.78 302.944 301.151 304.106 286.671 283.354 278.667 283.797 283.261 303.184 269.858 286.655 268.388 279.811 312.535 291.712 289.455 292.406 291.971 292.143 297.821 285.6 282.634 295.348 319.246 283.862 301.043 281.78 282.114 277.854 282.067 276.476 282.279 285.914 275.629 282.207 308.1 287.73 277.089 292.709 275.444 280.815 287.614 286.296 288.3 319.61 301.061 275.435 271.955 294.9 298.737 297.275 281.036 297.467 277.574 293.425 279.582 287.7 286.656 287.913 289.037 292.93 287.028 286.639 291.694 284.157 271.48 282.657 284.074 284.267 285.667 286.096 275.132 300.447 298.262 298.891 298.31 281.266 326.166 277.889 321.228 291.816 296.452 304.185 295.123 269.074 271.727 269.473 298.044 265.763 272.441 306.473 302.752 320.327 282.598 281.58 300.659 283.897 325.605 290.839 290.381 290.421 270.5 290.255 272.375 290.543 287.702 290.288 276.23 281.725 287.66 280.357 293.274 298.867 290.375 308.749 290.822 289.429 286.844 279.731 293.748 287.934 287.474 295.992 293.687 305.13 302.968 302.62 303.438 291.86 291.654 289.327 292.025 290.929 288.112 298.898 289.534 308.095 291.741 294.29 297.349 290.704 282.077 286.853 294.144 287.798 289.568 289.564 294.898 277.107 281.214 273.499 282.036 289.394 281.899 280.522 283.936 287.674 276.414 281.875 284.171 317.389 309.921 308.523 277.081 290.841 290.293 289.583 292.586 292.924 295.109 287.155 290.888 298.803 265.894 278.654 273.708 289.12 287.469 286.788 281.969 299.178 282.244 280.858 281.846 284.826 281.609 289.376 265.296 300.992 269.76 272.503 297.955 284.305 285.717 294.465 304.587 298.632 300.187 288.288 306.831 285.952 272.791 287.768 280.165 298.668 289.21 292.127 294.747 294.718 322.086 30