<VTKFile type="PolyData" version="0.1" byte_order="LittleEndian">
  <PolyData>
    <Piece NumberOfPoints="2933" NumberOfVerts="0" NumberOfLines="0"
           NumberOfStrips="0" NumberOfPolys="26240">
      <Points>
        <DataArray type="Float32" NumberOfComponents="3" format="ascii">
          -0 -1 0 0 -0 -1 0 1 -0 -0 0 1 0.910557 -0.544721 0 0.910557 -0 -0.544721 0.910557 0.544721 0 0.910557 0 0.544721 0.9 -0.5 0 0.9 0 -0.5 0.9 0.5 0 0.9 0 0.5 1 -0.4 0 1 0 -0.4 1 0.4 0 1 0 0.4 1 -0.5 0 1 -0 -0.5 1 0 0.5 1 0.5 0 1 -0.6 0 1 -0 -0.6 1 -0 0.6 1.1 -0.5 0 1.1 0 -0.5 1 0.6 0 1.1 0 0.5 1.1 0.5 0 0 -0.995107 -0.098799 0 -0.980785 -0.19509 0 -0.956712 -0.291036 0 -0.92388 -0.382683 0 -0.881551 -0.472089 0 -0.83147 -0.55557 0 -0.772512 -0.635 0 -0.707107 -0.707107 0 -0.633786 -0.773508 0 -0.55557 -0.83147 0 -0.470704 -0.882291 0 -0.381232 -0.92448 0 -0.289533 -0.957168 0 -0.19509 -0.980785 0 -0.097235 -0.995261 0 0.098799 -0.995107 0 0.19509 -0.980785 0 0.291036 -0.956712 0 0.382683 -0.92388 0 0.472089 -0.881551 0 0.55557 -0.83147 0 0.635 -0.772512 0 0.707107 -0.707107 0 0.773508 -0.633786 0 0.83147 -0.55557 0 0.882291 -0.470704 0 0.92448 -0.381232 0 0.957168 -0.289533 0 0.980785 -0.19509 0 0.995261 -0.097235 -0 0.995107 0.098799 -0 0.980785 0.19509 -0 0.956712 0.291036 -0 0.92388 0.382683 -0 0.881551 0.472089 -0 0.83147 0.55557 -0 0.772512 0.635 -0 0.707107 0.707107 -0 0.633786 0.773508 -0 0.55557 0.83147 -0 0.470704 0.882291 -0 0.381232 0.92448 -0 0.289533 0.957168 -0 0.19509 0.980785 -0 0.097235 0.995261 -0 -0.098799 0.995107 -0 -0.19509 0.980785 -0 -0.291036 0.956712 -0 -0.382683 0.92388 -0 -0.472089 0.881551 -0 -0.55557 0.83147 -0 -0.635 0.772512 -0 -0.707107 0.707107 -0 -0.773508 0.633786 -0 -0.83147 0.55557 -0 -0.882291 0.470704 -0 -0.92448 0.381232 -0 -0.957168 0.289533 -0 -0.980785 0.19509 -0 -0.995261 0.097235 0.088324 -0.955838 0 0.175738 -0.912131 0 0.264062 -0.867969 0 0.351475 -0.824262 0 0.439799 -0.7801 0 0.527213 -0.736394 0 0.615537 -0.692232 0 0.70295 -0.648525 0 0.791274 -0.604363 0 0.861387 -0.569306 0 0.910557 -0.052115 -0.542223 0.910557 -0.1113 -0.533229 0.910557 -0.168328 -0.518061 0.910557 -0.221037 -0.497859 0.910557 -0.272114 -0.471885 0.910557 -0.317404 -0.442692 0.910557 -0.364066 -0.405188 0.910557 -0.402893 -0.366604 0.910557 -0.439175 -0.322252 0.910557 -0.471885 -0.272114 0.910557 -0.49786 -0.221037 0.910557 -0.518848 -0.165885 0.910557 -0.533918 -0.107948 0.910557 -0.542462 -0.049559 0.088324 -0 -0.955838 0.175738 -0 -0.912131 0.263151 -0 -0.868424 0.350565 -0 -0.824718 0.437978 -0 -0.781011 0.525392 -0 -0.737304 0.612805 -0 -0.693597 0.700219 -0 -0.649891 0.787632 -0 -0.606184 0.857745 -0 -0.571128 0.088324 0.955838 0 0.176648 0.911676 0 0.264972 0.867514 0 0.353296 0.823352 0 0.44162 0.77919 0 0.529944 0.735028 0 0.618268 0.690866 0 0.706592 0.646704 0 0.793095 0.603452 0 0.861387 0.569306 0 0.910557 0.542615 -0.047854 0.910557 0.53475 -0.103751 0.910557 0.520892 -0.159352 0.910557 0.502929 -0.209246 0.910557 0.478982 -0.259417 0.910557 0.451966 -0.304052 0.910557 0.417525 -0.349849 0.910557 0.380918 -0.389388 0.910557 0.339915 -0.425652 0.910557 0.295479 -0.457617 0.910557 0.249583 -0.48418 0.910557 0.203704 -0.505199 0.910557 0.150328 -0.523567 0.910557 0.099548 -0.535548 0.910557 0.047002 -0.54269 0.910557 0.050411 0.542384 0.910557 0.102071 0.535073 0.910557 0.156896 0.521637 0.910557 0.206082 0.504234 0.910557 0.257157 0.4802 0.910557 0.301207 0.453868 0.910557 0.343911 0.422429 0.910557 0.385781 0.384571 0.910557 0.420804 0.345898 0.910557 0.452919 0.302631 0.910557 0.480603 0.256402 0.910557 0.504879 0.204497 0.910557 0.523331 0.151151 0.910557 0.535548 0.099548 0.910557 0.54269 0.047002 0.088324 0 0.955838 0.175738 0 0.912131 0.263151 0 0.868424 0.350565 0 0.824718 0.438889 0 0.780556 0.526302 0 0.736849 0.613716 0 0.693142 0.701129 0 0.649435 0.787632 0 0.606184 0.857745 0 0.571128 0.910557 -0.052966 0.54214 0.910557 -0.112138 0.533054 0.910557 -0.165885 0.518848 0.910557 -0.221819 0.497512 0.910557 -0.273595 0.471028 0.910557 -0.321562 0.439681 0.910557 -0.364702 0.404616 0.910557 -0.40576 0.363429 0.910557 -0.442692 0.317404 0.910557 -0.474849 0.266909 0.910557 -0.499921 0.216335 0.910557 -0.51988 0.162622 0.910557 -0.534586 0.104591 0.910557 -0.542384 0.050411 0.9 -0.497234 -0.052525 0.9 -0.487786 -0.109838 0.9 -0.473296 -0.161215 0.9 -0.451405 -0.215019 0.9 -0.425909 -0.261919 0.9 -0.392172 -0.310163 0.9 -0.353553 -0.353553 0.9 -0.311394 -0.391195 0.9 -0.263255 -0.425084 0.9 -0.212179 -0.452747 0.9 -0.160472 -0.473549 0.9 -0.106004 -0.488634 0.9 -0.050962 -0.497396 0.9 0.497234 -0.052525 0.9 0.488299 -0.107538 0.9 0.472016 -0.164928 0.9 0.450387 -0.217144 0.9 0.421743 -0.268576 0.9 0.389724 -0.313234 0.9 0.350766 -0.356319 0.9 0.310163 -0.392172 0.9 0.262587 -0.425497 0.9 0.21431 -0.451742 0.9 0.159728 -0.473801 0.9 0.106004 -0.488634 0.9 0.051743 -0.497315 0.9 0.497396 0.050962 0.9 0.488965 0.104468 0.9 0.473549 0.160472 0.9 0.452414 0.21289 0.9 0.424255 0.26459 0.9 0.392658 0.309547 0.9 0.354662 0.352441 0.9 0.312621 0.390215 0.9 0.266586 0.423004 0.9 0.215019 0.451405 0.9 0.161215 0.473296 0.9 0.105236 0.4888 0.9 0.050962 0.497396 0.9 -0.497234 0.052525 0.9 -0.488129 0.108305 0.9 -0.472274 0.164186 0.9 -0.449703 0.218558 0.9 -0.422164 0.267913 0.9 -0.390215 0.312621 0.9 -0.352441 0.354662 0.9 -0.311394 0.391195 0.9 -0.26725 0.422584 0.9 -0.217144 0.450387 0.9 -0.163444 0.472532 0.9 -0.106771 0.488467 0.9 -0.051743 0.497315 1 -0.396271 -0.054494 1 -0.384811 -0.109181 1 -0.365077 -0.16346 1 -0.339071 -0.212204 1 -0.304162 -0.259779 1 -0.262634 -0.301701 1 -0.215391 -0.337056 1 -0.16346 -0.365077 1 -0.107971 -0.385152 1 -0.052626 -0.396523 0.947884 -0.414654 -0 0.912674 -0.451275 -0 0.949502 0 -0.413687 0.913215 0 -0.450318 1 0.39583 -0.057604 1 0.384117 -0.111596 1 0.365077 -0.16346 1 0.339071 -0.212204 1 0.303754 -0.260257 1 0.261685 -0.302524 1 0.216977 -0.336037 1 0.168034 -0.362994 1 0.11461 -0.383229 1 0.05636 -0.396009 0.911845 0.452791 -0 0.949367 0.413766 -0 1 0.396098 0.055738 1 0.384639 0.109785 1 0.364819 0.164033 1 0.336717 0.21592 1 0.303345 0.260733 1 0.263108 0.301288 1 0.218558 0.335011 1 0.169174 0.362464 1 0.115813 0.382867 1 0.056982 0.39592 0.950181 0 0.413293 0.912674 0 0.451275 1 -0.39592 0.056982 1 -0.384811 0.109181 1 -0.364819 0.164033 1 -0.337056 0.215391 1 -0.302113 0.26216 1 -0.260733 0.303345 1 -0.2138 0.338067 1 -0.162312 0.365588 1 -0.107366 0.385321 1 -0.052626 0.396523 0.948481 -0.52576 0 1 -0.49347 -0.080544 1 -0.474795 -0.156748 1 -0.444788 -0.228394 1 -0.404046 -0.294528 1 -0.352998 -0.354108 1 -0.293893 -0.404508 1 -0.227695 -0.445146 1 -0.155255 -0.475285 1 -0.079768 -0.493596 0.947139 -0 -0.52643 1 -0.078217 0.493844 1 -0.154508 0.475528 1 -0.226295 0.445859 1 -0.293257 0.40497 1 -0.352441 0.354662 1 -0.403583 0.295162 1 -0.444429 0.229092 1 -0.474795 0.156748 1 -0.493343 0.081319 0.947944 0 0.526028 1 0.082093 -0.493215 1 0.157493 -0.474548 1 0.229092 -0.444429 1 0.295162 -0.403583 1 0.354108 -0.352998 1 0.40497 -0.293257 1 0.445503 -0.226995 1 0.475285 -0.155255 1 0.493596 -0.079768 1 0.493721 0.078993 1 0.475528 0.154508 1 0.445503 0.226995 1 0.40497 0.293257 1 0.354108 0.352998 1 0.295162 0.403583 1 0.228394 0.444788 1 0.156748 0.474795 1 0.080544 0.49347 0.948928 0.525536 0 0.944723 -0.583334 -0 1 -0.596971 -0.060217 1 -0.588101 -0.118902 1 -0.573476 -0.176424 1 -0.55324 -0.23222 1 -0.52714 -0.286571 1 -0.497305 -0.335689 1 -0.464105 -0.380272 1 -0.424264 -0.424264 1 -0.381728 -0.462908 1 -0.334125 -0.498358 1 -0.283254 -0.52893 1 -0.23135 -0.553604 1 -0.175523 -0.573752 1 -0.117978 -0.588287 1 -0.059279 -0.597064 0.946395 -0 -0.584419 1 -0.597248 0.057403 1 -0.589195 0.113354 1 -0.575647 0.169204 1 -0.557169 0.222626 1 -0.535457 0.270713 1 -0.507604 0.319903 1 -0.476394 0.364758 1 -0.439953 0.407972 1 -0.398904 0.448192 1 -0.357987 0.481503 1 -0.31189 0.512566 1 -0.265655 0.537985 1 -0.218243 0.558901 1 -0.1683 0.575913 1 -0.112429 0.589372 1 -0.056465 0.597337 0.944816 -0 0.583395 1.1 -0.496626 -0.057989 1.1 -0.486549 -0.115195 1.1 -0.470706 -0.16863 1.1 -0.449359 -0.219264 1.1 -0.422164 -0.267913 1.1 -0.388243 -0.315067 1.1 -0.352441 -0.354662 1.1 -0.310163 -0.392172 1.1 -0.266586 -0.423004 1.1 -0.218558 -0.449703 1.1 -0.16715 -0.471233 1.1 -0.11443 -0.48673 1.1 -0.057209 -0.496716 1.05036 -0.586392 0 1.08631 -0.550498 0 1.04859 -0 -0.587403 1.08551 -0 -0.551847 0.944539 0.583211 -0 1 0.597512 -0.054588 1 0.589548 -0.111503 1 0.576176 -0.167395 1 0.559583 -0.216486 1 0.536305 -0.26903 1 0.509106 -0.317507 1 0.479244 -0.361005 1 0.443779 -0.403808 1 0.406588 -0.441233 1 0.366999 -0.47467 1 0.319903 -0.507604 1 0.269872 -0.535882 1 0.219121 -0.558557 1 0.164678 -0.576959 1 0.108723 -0.590067 1 0.054588 -0.597512 1.1 -0.496894 0.055648 1.1 -0.487263 0.112135 1.1 -0.472016 0.164928 1.1 -0.450045 0.217851 1.1 -0.422584 0.26725 1.1 -0.390706 0.312008 1.1 -0.352998 0.354108 1.1 -0.310779 0.391684 1.1 -0.263923 0.42467 1.1 -0.217144 0.450387 1.1 -0.163444 0.472532 1.1 -0.109072 0.487958 1.1 -0.053306 0.49715 1.04859 -0 0.587403 1.08631 -0 0.550498 1 0.597337 0.056465 1 0.589016 0.11428 1 0.576699 0.165584 1 0.558212 0.219998 1 0.534604 0.272394 1 0.508106 0.319105 1 0.47467 0.366999 1 0.439312 0.408663 1 0.401011 0.446307 1 0.359498 0.480376 1 0.31189 0.512566 1 0.265655 0.537985 1 0.212966 0.560933 1 0.161049 0.577982 1 0.10965 0.589896 1 0.055527 0.597425 1.08778 -0.4521 0 1.05009 -0.41345 0 1.08748 0 -0.45155 1.04995 0 -0.413371 1.1 0.497066 -0.054086 1.1 0.488129 -0.108305 1.1 0.473043 -0.161959 1.1 0.450728 -0.216436 1.1 0.42467 -0.263923 1.1 0.392172 -0.310163 1.1 0.354662 -0.352441 1.1 0.315067 -0.388243 1.1 0.2699 -0.420897 1.1 0.219264 -0.449359 1.1 0.164928 -0.472016 1.1 0.110604 -0.487613 1.1 0.056428 -0.496806 1.08694 0.549409 0 1.04955 0.586863 0 1.08671 0 0.450181 1.0505 0 0.413687 1.1 0.496716 0.057209 1.1 0.487786 0.109838 1.1 0.471756 0.165669 1.1 0.450387 0.217144 1.1 0.423422 0.265921 1.1 0.392172 0.310163 
[...]
      <PointData Scalars="T">
        <DataArray type="Float32" Name="T" format="ascii">
          20 20 20 20 49.9384 52.2538 53.209 53.5493 25.2259 26.6411 26.3088 26.138 -50 -50 -50 -50 85.8844 80.3751 80.9907 75.8292 97.8577 97.8081 98.5784 98.8904 98.5579 97.6931 98.5134 99.1712 20 20 20 20 20 20 20 20 20 20 20 20 20 20 20 20 20 20 20 20 20 20 20 20 20 20 20 20 20 20 20 20 20 20 20 20 20 20 20 20 20 20 20 20 20 20 20 20 20 20 20 20 20 20 20 20 20 20 20 20 20 20 20 20 20 20 20 20 20.0003 20.4248 55.0593 56.4141 55.1845 46.3311 51.7278 50.5768 53.0954 53.9033 49.3428 49.4742 46.3781 53.9372 53.0325 47.1426 20 20 20 20 20 20 20 20 20.0006 20.1736 20 20 20 20 20 20 20 20 20.0009 20.2739 48.2836 52.6016 46.885 45.5499 51.6896 52.9711 52.7029 54.4613 52.666 51.5947 47.3518 46.7026 52.4359 52.8483 53.9761 46.8305 48.4592 54.4041 55.3316 51.8107 45.1963 51.3228 53.675 49.0828 49.3393 48.8413 53.3196 46.5908 52.8547 53.2287 20 20 20 20 20 20 20 20 20.0006 20.2964 44.9826 49.971 50.15 51.824 52.0208 52.4381 52.5101 48.9363 48.8309 53.9628 47.1652 46.7378 52.3721 54.5801 24.952 26.3568 25.8391 24.8301 27.6724 27.4199 25.664 26.0633 26.1127 26.2312 24.7457 26.0245 26.2317 25.2492 26.7523 26.4004 26.1476 25.8878 26.7072 25.862 25.9933 27.9705 25.312 26.1351 27.1975 26.0838 26.0953 27.6185 25.327 27.3525 23.1369 27.0936 25.1357 27.1285 25.4575 26.6043 24.5752 26.8023 24.3392 26.043 27.0429 24.9456 27.6234 25.3846 26.3558 25.7774 27.0624 24.6671 26.46 26.1581 25.1579 25.9013 -50 -50 -50 -50 -50 -50 -50 -50 -50 -50 18.4174 21.3552 15.7759 21.5951 -50 -50 -50 -50 -50 -50 -50 -50 -50 -50 21.3542 16.3158 -50 -50 -50 -50 -50 -50 -50 -50 -50 -50 17.3635 21.236 -50 -50 -50 -50 -50 -50 -50 -50 -50 -50 63.8572 78.6966 74.377 72.8242 73.8045 72.9343 74.6055 75.7262 76.6901 75.9234 65.3329 80.0317 75.9107 74.0805 75.4143 73.7339 74.2076 74.6029 79.1948 78.5882 65.5833 79.4516 77.4355 73.8866 74.6119 74.5373 72.7202 78.2824 81.6931 74.5965 74.3468 78.3406 75.6987 75.6653 81.6626 81.3022 76.1405 74.1113 76.9341 66.9439 87.1342 97.898 98.1137 97.3399 98.2416 97.4683 97.0111 97.5479 97.2865 98.3151 97.338 97.6978 97.8133 97.6801 98.4104 98.3395 88.1371 97.854 98.2733 98.1677 97.8693 97.963 97.4963 98.2292 97.7535 97.9067 98.6381 97.6558 98.3443 97.4868 97.5179 98.2318 97.9721 87.98 99.9862 98.5797 98.383 97.3551 98.3704 98.4838 97.2976 98.4494 98.5729 97.6389 98.5334 98.659 99.6776 99.1667 99.4605 98.8714 98.809 88.5157 97.6291 97.8773 97.9236 97.6229 98.2088 96.9873 97.7104 98.155 97.4963 97.5605 97.7908 98.1096 97.6813 97.413 97.7867 97.4226 99.8882 98.7814 97.9963 98.1878 98.4562 98.658 97.2777 98.6134 98.5073 98.3408 97.6701 98.9049 99.9866 99.0066 99.0203 97.7417 98.0808 98.3412 97.5783 97.4222 98.3986 97.3291 97.199 97.8508 99.6989 97.965 97.6208 98.2065 97.6085 97.6948 97.48 94.0226 69.5254 95.5519 66.7481 99.2477 98.8973 98.7601 98.4703 98.1163 98.252 97.5408 98.3863 98.4032 98.3922 97.7339 98.7487 98.7847 99.7848 99.0448 93.9271 69.2615 99.2509 98.727 99.0426 97.7928 98.5751 98.6144 99.0276 99.1228 100.269 98.7449 97.5015 98.6696 99.8228 80.0198 96.2308 20 20 20 20 20 20 20 20 20 20 20 20 20 20 20 20 20 20 20 20 20 20 20 20 20 20 20 20 20 20 20 20 20 20 20 20 20 20 20 20 20 20 20 20 20 20 20 20 20 20 20 20 20 20 20 20 20 20 20 20 20 20 20 20 20 20 20 20 20 20 20 20 20 20 20 20 20 20 20 20 20 20 20 20 20 20 20 20 20 20 20 20 20 20 20 20 20 20 20 20 20 20 20 20 20 20 20 20 20 20 20 20 20 20 20 20 20 20 20 20 20 20 20 20 20 20 20 20 20 20 20 20 20 20 20 20 20 20 20 20 20 20 20 20 20 20 20 20 20 20 20 20 20 20 20 20 20 20 20 20 20 20 20 20 20 20 20 20 20 20 20 20 20 20 20 20 20 20 20 20 20 20 20 20 20 20 20 20 20 20 20 20 20 20 20 20 20 20 20 20 20 20 20 20 20 20 20 20 20 20 20 20 20 20 20 20 20 20 20 20 20 20 20 20 20 20 20 20 20 20 20 20 20 20 20 20 20 20 20 20 20 20 20 20 20 20 20 20 20 20 20 20 20 20 20 20 20 20 20 20 20 20 20 20 20 20 20 20 20 20 20 20 20 20 20 20 20 20 20 20 20 20 20 20 20 20 20 20 20 20 20 20 20 20 20 20 20 20 20 20 20 20 20 20 20 20 20 20 20 20 20 20 20 20 20 20 20 20 20 20.0022 20.335 20.6958 20.4426 20.4089 20.2701 20.4894 20.576 20.6063 20.3878 20.3554 20.5955 20.4232 20.3128 20 20 20 20 20 20 20 20 20 20 20 20 20 20 20 20 20 20 20 20 20 20.0016 20 20 20 20 20 20 20 20 20.0043 20.0019 20.0004 20.0012 20.0016 20.0009 20.0048 20.0032 20.0058 20.0014 20.0038 20.0048 20 20 20 20 20 20 20 20 20 20 20 20 20 20 20 20 20 20 20 20 20 20 20 20 20 20 20 20 20 20 20 20 20 20 20 20 20 20 20 20 20 20 20 20 20 20 20 20 20 20 20 20 20 20 20 20 20 20 20 20 20 20 20 20 20 20 20 20 20 20 20 20 20 20 20 20 20 20 20 20 20 20 20 20 20 20 20 20 20 20 20 20 20 20 20 20 20.0029 20.7812 20.1776 20.2181 20.2658 20.4661 20.36 20.3646 20.4305 20.2365 20.3876 20.4641 20.6269 20.3365 20.2645 20.6185 20 20 20 20 20 20 20 20 20.0071 20 20 20 20 20 20 20 20 20 20 20.0013 20 20 20 20 20 20 20.0007 20.0026 20.0029 20.0017 20.0022 20.0028 20.0017 20.0045 20.001 20 20 20 20 20 20 20 20 20.0011 20.0029 20 20 20 20 20 20 20 20 20 20 20 20 20 20 20 20 20 20 20 20 20 20 20 20 20 20 20 20 20 20 20 20 20 20 20 20 20 20 20 20 20 20 20 20 20 20 20 20 20 20 20 20 20 20 20 20 20 20 20 20 20 20 20 20 20.0043 20.6166 20.9535 20.3189 20.4634 20.3079 20.4013 20.2387 20.5384 20.4698 20.3603 20.842 20.175 20.4892 20.5646 20 20 20 20 20 20 20 20 20 20 20 20 20 20 20 20 20 20 20 20 20 20.0025 20 20 20 20 20 20 20 20.0038 20.0015 20.002 20.0016 20.002 20.0034 20.0021 20.0021 20.0025 20.0032 20.0071 20.0026 20 20 20 20 20 20 20 20 20 20 20 20 20 20 20 20 20 20 20 20 20 20 20 20 20 20 20 20 20 20 20 20 20 20 20 20 20 20 20 20 20 20 20 20 20 20 20 20 20 20 20 20 20 20 20 20 20 20 20 20 20 20 20 20 20 20 20 20 20 20 20 20 20 20 20 20 20 20 20 20 20 20 20 20 20 20 20 20 20 20 20 20 20 20 20 20 20 20 20 20 20 20 20 20 20 20.0049 20.4362 20.656 20.3293 20.4913 20.2791 20.3101 20.2346 20.4369 20.1812 20.7853 20.4341 20.1938 20.3452 20 20 20 20 20 20 20 20 20.0006 20 20 20 20 20 20 20 20 20 20 20 20 20 20 20 20 20 20.0026 20.0054 20.003 20.0023 20.0034 20.0019 20.0019 20.0028 20.0027 20.0007 20.0028 20 20 20 20 20 20 20 20 20 20 20 20 20 20 20 20 20 20 20 20 20 20 20 20 20 20 20 20 20 20 20 20 20 20 20 20 20 20 20 20 20 20 20 20 20 20 20 20 20 20 20 20 20 20 20 20 20 20 20 20 20 20 20 20 20 20 20 20 20 20 5.80077 8.43443 12.7067 11.7081 6.96987 10.7131 13.8588 6.35512 18.6117 8.8589 20.8423 21.7269 20.4804 21.4687 20.7368 20.5935 20.9791 20.5302 20.8467 21.0309 21.1602 20.4717 21.3288 20.9343 20.8426 20.6314 21.4019 21.1782 20.4409 21.1975 23.1763 21.0856 16.6346 18.971 7.20197 13.4585 12.1004 8.55408 -1.1643 8.75072 19.857 9.84607 18.3682 18.5636 21.4019 21.1682 20.6475 20.39 21.4111 20.8217 20.9715 21.1756 20.4438 20.9289 19.2633 8.83674 8.77274 9.15011 16.4682 19.0076 8.42666 12.7298 19.9417 21.2753 15.4661 10.6749 15.3222 6.22057 13.9372 8.54524 12.5501 7.00731 14.3271 7.46395 10.6234 20.5128 21.1254 20.6345 21.0018 21.4261 20.6658 20.8187 20.6068 21.2217 21.2913 21.3967 21.0348 -50 -50 -50 -50 -50 -50 -50 -50 -50 -50 -50 -50 -50 -50 -50 -50 -50 -50 -50 -50 -50 -50 -50 -50 -50 -50 -50 -50 -50 -50 -50 -50 -50 -50 -50 -50 -50 -50 -50 -50 -50 -50 -50 -50 -50 -50 -50 -50 -50 -50 -50 -50 -50 -50 -50 -50 -50 -50 -50 -50 -50 -50 -50 -50 -50 -50 -50 -50 -50 -50 -50 -50 -50 -50 -50 -50 -50 -50 -50 -50 -50 -50 -50 -50 -50 -50 -50 -50 -50 -50 -50 -50 -50 -50 -50 -50 -50 -50 -50 -50 -50 -50 60.4787 66.8566 60.0788 65.7472 64.5093 64.0937 63.311 62.5882 63.0984 60.924 62.5409 62.0707 62.9394 68.8116 58.7187 66.0361 62.5 63.7879 61.5153 62.8129 46.8251 42.3202 56.4068 49.4593 46.2553 41.2739 45.6185 49.7321 44.0572 43.1907 48.7434 46.9381 50.3326 52.5497 41.7343 51.8671 58.8028 61.5852 68.7028 62.7616 61.8023 65.6953 64.7301 62.792 60.8112 62.72 64.475 64.9111 62.5094 58.4665 60.0557 61.7562 66.0236 58.8063 60.1518 59.9587 62.4997 64.4877 66.1386 86.7543 89.0759 89.4991 90.0259 91.5555 91.4947 88.6019 88.2445 91.0362 92.3849 91.6852 88.8431 89.9668 91.8385 87.0907 89.5347 87.2724 90.614 87.8963 87.0062 88.3469 88.2772 87.8524 87.7631 88.4495 91.1257 92.8664 91.225 94.0193 81.7634 87.5267 81.5047 80.9691 98.8711 99.7118 99.1565 98.014 99.5559 98.1393 99.7873 99.0488 98.117 99.7336 98.2917 99.2323 99.2687 98.3928 99.6747 99.7353 98.2176 98.9508 98.9617 97.9684 99.0099 98.934 98.1487 99.2635 99.1921 99.3034 98.3556 99.771 99.5506 98.5955 99.504 86.8396 88.486 87.2211 87.0869 89.1537 88.7196 88.0145 88.6698 88.6673 87.585 86.55 87.3602 88.0109 87.058 99.0946 100.027 98.6183 98.9673 99.0755 98.2744 99.0916 98.0591 99.2001 98.3332 99.0101 99.0834 98.3058 100.096 98.7924 99.5353 98.724 99.4552 99.5117 99.1361 97.9607 99.0322 98.9769 98.137 99.0692 99.1454 99.0551 98.6978 99.895 99.726 100.04 99.4835 98.6369 86.3138 88.8709 91.5679 92.0091 89.5754 86.9657 82.2678 87.7401 88.86 88.9155 89.0411 89.8342 88.1093 87.3991 93.8404 92.0737 91.3065 91.9758 92.7999 93.1363 95.0342 93.8458 92.5098 92.6213 96.7148 60.3392 62.8131 63.0977 69.9529 62.9075 63.5001 58.5892 62.643 55.3972 64.1947 85.2575 82.1387 90.9839 92.8762 99.7599 99.5316 99.5477 99.5526 99.6038 97.8217 99.1405 99.1636 98.1713 98.8306 99.3302 99.2364 98.6043 99.6288 99.8564 100.591 98.9557 99.0568 99.4919 97.9655 98.9246 98.1929 99.7791 99.0591 98.3078 98.9121 98.4101 100.141 98.6901 99.3658 99.6665 99.2265 98.8346 99.9332 94.0164 93.6016 92.5535 93.3691 95.7823 95.2711 93.4538 93.2089 93.4199 93.9039 72.2608 60.1081 64.146 74.2133 55.582 68.7988 63.7808 63.9656 67.2309 50.1261 73.4134 81.8486 89.7224 89.9462 99.3833 99.644 99.3492 99.2209 99.2351 98.1721 99.8564 99.8997 99.8818 98.4407 99.0053 99.0174 98.3865 99.9477 99.488 99.9716 98.675 99.7025 99.1649 98.4505 99.9866 98.8924 99.5653 99.0654 98.8504 99.2771 98.1577 99.8849 98.4802 99.5644 99.6751 98.8495 99.8435 72.2374 66.9818 61.493 74.5761 63.8337 63.0728 63.9189 59.7271 60.2421 65.9074 96.178 93.4881 94.8794 93.154 92.9725 93.6741 93.2784 93.8011 96.0636 93.0936 93.4876 90.6255 72.211 63.1234 66.2139 47.1568 61.8892 68.7016 74.1425 63.9358 63.2744 50.6251 96.5868 95.7139 93.4024 94.7081 95.827 98.3503 93.6784 93.4574 94.0829 84.4709 94.0497 95.3283 92.7367 80.9995 85.212 85.177 20 20 20 20 20 20 20 20 20 20 20 20 20 20 20 20 20 20 20 20 20 20 20 20 20 20 20 20 20 20 20 20 20 20 20 20 20 20 20 20 20 20 20 20 20 20 20 20 20 20 20 20 20 20 20 20 20 20 20 20 20 20 20 20 20 20 20 20 20 20 20 20 20 20 20 20 20 20 20 20 20 20 20 20 20 20 20 20 20 19.9999 20 19.9872 20 20 20 20 20 20 19.9732 20 20 20 20 20 20 20 20 20 20 20 20 20 20 20 20 20 20 20 20 20 20 20 20 20 20 20 20 20 20 20 20 20 20 20 20 19.999 20 19.9998 20 20 20 20 20 20 20 20 20 20 19.5791 20 19.9984 20 20 20 20 20 20 20 20 20 20 20 20 20 20 20 20 20 20 19.9922 19.9987 20.0014 20 20 19.9966 20 20 19.9787 19.9951 20 20.0328 20 20 19.995 20.0151 19.9929 20 19.3748 20 20 20.0427 20.0003 20 19.9999 19.9827 20.0482 20.0257 20 20 20 20 20 19.9998 20 19.9936 20 19.9913 20 20 19.9989 20.0201 20 20 19.9988 20.0516 20.0001 20 20 20 20 20 20 19.9836 19.9899 20 20 19.8557 19.9931 20.0004 19.5025 19.9988 20.0213 20.0186 19.9997 19.9515 19.8802 20 20.0856 20.0002 18.83 17.1573 19.9985 19.9845 19.5328 17.2552 17.6651 19.2984 19.8889 19.2901 19.9606 17.587 17.5845 19.7477 19.9731 18.2888 16.5159 18.592 17.1545 19.9697 20.0153 20.0001 20 20 20 20 20 20 20 20 20 20 19.9995 20.0001 19.9858 19.9999 20.0017 17.0558 19.9806 19.9624 18.0655 18.3548 18.7875 19.9362 17.6983 15.856 18.4495 20 16.9717 20.0054 20 20 20 20 20 20 19.9989 19.9991 19.9787 20 20 20 20 20 20 20 20 20 20 20 20 20 20 20 20 20 20 20 20 20 20 20 20 20 20 20 20 20 20 20 20 20 20 20 20 20 20 20 20 20 20 20 20 20 20 20 20 20 20 20 20 20 20 20 20 20 20 20 20 20 20 20 20 20 20 20 20 20 20 20 20 20 20 20 20 20 20 20 20 20 20 20 20 20 20 20 20 20 20 20 20 20 20 20 20 20 20 20 20 20 20 20 20 20 20 20 20 20 20 20 20 20 20 20 20 20 20 20 20 20 20 20 20 20 20 20 20 20 20 20 20 20 20 20 20 20 20 20 20 20 20.0482 19.9959 20 20.0114 20.0001 20.0034 19.876 19.9621 20 20.0088 19.9848 19.9999 20.0403 20.0011 20.0074 19.8943 20 20.0368 20 20 20 20 20.0159 20.0436 19.9978 20 19.9959 20 20 20.0201 20 20 20.0043 19.8601 20 20.0006 20.0001 20.0046 19.9614 19.9823 20.0078 20 20.0001 20.001 20.024 20 20 20.0231 19.9132 20.026 20.0001 20.0468 20 20.0001 20.0228 20.041 19.9999 20.0413 20.0002 20 19.9953 19.9935 19.9117 19.9999 20.015 20 20.0182 20.1292 20 20.0027 20 19.9997 20 20 20.0027 20.006 20.0201 17.1033 19.9999 20 20 20 19.9611 19.9999 20.0168 20.0328 20.013 19.9999 19.9741 19.9999 20 20 20 20 20.0048 20.0004 20.0161 20 20.014 20 20.0099 20 20.0239 20.0001 20.0001 20.0181 19.9999 19.929 20.0223 20.0001 19.9989 20.0034 20.0001 20 20 19.9999 20 20.0088 20.0047 19.9656 20 20.0647 20.0001 20.0495 19.9499 20.1378 20.0004 20.0483 19.9935 20.0006 20.0001 20.041 19.9963 20.0082 20.0001 20.0092 20.0002 20.065 20 19.9999 20.0069 20 20.0165 20.0001 20.0001 20.0167 19.9439 19.9614 17.8899 19.9999 20 17.645 20 20 20 20.0006 20.0005 17.9125 19.9995 20 19.9999 18.2203 19.9763 19.2529 20 20.0086 19.9968 20 20.02 20.0042 20.0001 19.9975 20 20.0286 20 20.0006 19.982 20.0001 20 20 20 19.9997 19.9999 20.0009 20 19.9999 19.2707 19.9819 17.8054 18.7733 18.1577 19.5357 20 20 20 19.9992 19.973 20.0001 20 20 20 20 20 20 20.0065 19.9984 19.9999 19.3773 18.1821 20 20 20 19.9996 20 19.9997 18.2772 19.9845 15.9875 18.9374 18.6527 16.9012 20 20 19.9985 19.9534 17.8179 17.7846 19.9081 19.1724 17.9394 19.9981 19.9379 19.9999 19.9934 20 19.8904 18.8294 20.0018 19.9998 20 20 20.0003 20 17.1738 20.0036 19.9085 18.3978 19.9993 19.0521 20 19.6752 16.7984 19.9994 19.9992 19.8771 16.5653 20.0075 19.9999 20 20 19.8723 17.1624 20 20 19.9972 20 20 20 20 20 20 20 20 20 20 20 20 20 20 20 20 20 20 20 20 20 20 20 20 20 20 20 20 20 20 20 20 20 20 20 20 20 20 20 20 20 20 20 20 20 20 20 20 20 20 20 20 20 20 20 20 20 20 20 20 20 20 20 20 20 20 20 20 20 20 20 20 20 20 20 20 20 20 20 20 20 20 20 20 20 20 20 20 20 20 20 20 20 20 20 20 20 20 20 20 20 20 20 20 20 20 20 20 20 20 20 20 20 20 20 20 20 20 20 20 20 20 20 20 20 20 20 20 20 20 20 20 20 20 20 20 20 20 20 20 20 20 20 20 20 20 20 20 20 20 20 20 20 20 20 20 20 20 20 20 20 20 20 20 20 20 20 20 20 20 20 20 20 20 20 20 20 20 20 20 20 20 20 20 20 20 20 20 20 20 20 20 20 20 20 20 20 20 20 20 20 20 19.9568 16.541 19.96 18.6554 18.665 18.7894 18.8051 17.6467 19.212 19.1161 19.0848 18.566 18.6355 19.9905 19.1117 18.4694 20 18.0378 19.9843 20 20 20 20 20 20 20 20 20 20 20 20 20 20 20 20 20 20 20 20 20 20 20 20 20 20 20 20 20 20 20 20 20 20 20 20 20 20 20 20 20 20 20 20 20 20 20 20 20 20 20 20 20 20 20 20 20 20 20 20 20 20 20 20 20 20 20 20 20 20 20 20 20 20 20 20 20 20 20 20 20 20 20 20 20 20 20 20 20 20 20 20 20 20 20 20 19.997 20 20 20 19.9951 20.0001 20.0001 20 20 20 20 20 20 20 20 20 20 20 20 20 20 20 20 20 20 20 20 20 20 20 20 95.7661 95.4889 94.7331 96.0222 93.3842 
        </DataArray>
      </PointData>
      <Polys>
        <DataArray type="Int32" Name="connectivity" format="ascii">